
                                 *****************
                                 * O   R   C   A *
                                 *****************

                                            #,                                       
                                            ###                                      
                                            ####                                     
                                            #####                                    
                                            ######                                   
                                           ########,                                 
                                     ,,################,,,,,                         
                               ,,#################################,,                 
                          ,,##########################################,,             
                       ,#########################################, ''#####,          
                    ,#############################################,,   '####,        
                  ,##################################################,,,,####,       
                ,###########''''           ''''###############################       
              ,#####''   ,,,,##########,,,,          '''####'''          '####       
            ,##' ,,,,###########################,,,                        '##       
           ' ,,###''''                  '''############,,,                           
         ,,##''                                '''############,,,,        ,,,,,,###''
      ,#''                                            '''#######################'''  
     '                                                          ''''####''''         
             ,#######,   #######,   ,#######,      ##                                
            ,#'     '#,  ##    ##  ,#'     '#,    #''#        ######   ,####,        
            ##       ##  ##   ,#'  ##            #'  '#       #        #'  '#        
            ##       ##  #######   ##           ,######,      #####,   #    #        
            '#,     ,#'  ##    ##  '#,     ,#' ,#      #,         ##   #,  ,#        
             '#######'   ##     ##  '#######'  #'      '#     #####' # '####'        



                  #######################################################
                  #                        -***-                        #
                  #          Department of theory and spectroscopy      #
                  #    Directorship and core code : Frank Neese         #
                  #        Max Planck Institute fuer Kohlenforschung    #
                  #                Kaiser Wilhelm Platz 1               #
                  #                 D-45470 Muelheim/Ruhr               #
                  #                      Germany                        #
                  #                                                     #
                  #                  All rights reserved                #
                  #                        -***-                        #
                  #######################################################


                         Program Version 5.0.1 -  RELEASE  -


 With contributions from (in alphabetic order):
   Daniel Aravena         : Magnetic Suceptibility
   Michael Atanasov       : Ab Initio Ligand Field Theory (pilot matlab implementation)
   Alexander A. Auer      : GIAO ZORA, VPT2 properties, NMR spectrum
   Ute Becker             : Parallelization
   Giovanni Bistoni       : ED, misc. LED, open-shell LED, HFLD
   Martin Brehm           : Molecular dynamics
   Dmytro Bykov           : SCF Hessian
   Vijay G. Chilkuri      : MRCI spin determinant printing, contributions to CSF-ICE
   Dipayan Datta          : RHF DLPNO-CCSD density
   Achintya Kumar Dutta   : EOM-CC, STEOM-CC
   Dmitry Ganyushin       : Spin-Orbit,Spin-Spin,Magnetic field MRCI
   Miquel Garcia          : C-PCM and meta-GGA Hessian, CC/C-PCM, Gaussian charge scheme
   Yang Guo               : DLPNO-NEVPT2, F12-NEVPT2, CIM, IAO-localization
   Andreas Hansen         : Spin unrestricted coupled pair/coupled cluster methods
   Benjamin Helmich-Paris : MC-RPA, TRAH-SCF, COSX integrals
   Lee Huntington         : MR-EOM, pCC
   Robert Izsak           : Overlap fitted RIJCOSX, COSX-SCS-MP3, EOM
   Marcus Kettner         : VPT2
   Christian Kollmar      : KDIIS, OOCD, Brueckner-CCSD(T), CCSD density, CASPT2, CASPT2-K
   Simone Kossmann        : Meta GGA functionals, TD-DFT gradient, OOMP2, MP2 Hessian
   Martin Krupicka        : Initial AUTO-CI
   Lucas Lang             : DCDCAS
   Marvin Lechner         : AUTO-CI (C++ implementation), FIC-MRCC
   Dagmar Lenk            : GEPOL surface, SMD
   Dimitrios Liakos       : Extrapolation schemes; Compound Job, initial MDCI parallelization
   Dimitrios Manganas     : Further ROCIS development; embedding schemes
   Dimitrios Pantazis     : SARC Basis sets
   Anastasios Papadopoulos: AUTO-CI, single reference methods and gradients
   Taras Petrenko         : DFT Hessian,TD-DFT gradient, ASA, ECA, R-Raman, ABS, FL, XAS/XES, NRVS
   Peter Pinski           : DLPNO-MP2, DLPNO-MP2 Gradient
   Christoph Reimann      : Effective Core Potentials
   Marius Retegan         : Local ZFS, SOC
   Christoph Riplinger    : Optimizer, TS searches, QM/MM, DLPNO-CCSD(T), (RO)-DLPNO pert. Triples
   Tobias Risthaus        : Range-separated hybrids, TD-DFT gradient, RPA, STAB
   Michael Roemelt        : Original ROCIS implementation
   Masaaki Saitow         : Open-shell DLPNO-CCSD energy and density
   Barbara Sandhoefer     : DKH picture change effects
   Avijit Sen             : IP-ROCIS
   Kantharuban Sivalingam : CASSCF convergence, NEVPT2, FIC-MRCI
   Bernardo de Souza      : ESD, SOC TD-DFT
   Georgi Stoychev        : AutoAux, RI-MP2 NMR, DLPNO-MP2 response
   Willem Van den Heuvel  : Paramagnetic NMR
   Boris Wezisla          : Elementary symmetry handling
   Frank Wennmohs         : Technical directorship


 We gratefully acknowledge several colleagues who have allowed us to
 interface, adapt or use parts of their codes:
   Stefan Grimme, W. Hujo, H. Kruse, P. Pracht,  : VdW corrections, initial TS optimization,
                  C. Bannwarth, S. Ehlert          DFT functionals, gCP, sTDA/sTD-DF
   Ed Valeev, F. Pavosevic, A. Kumar             : LibInt (2-el integral package), F12 methods
   Garnet Chan, S. Sharma, J. Yang, R. Olivares  : DMRG
   Ulf Ekstrom                                   : XCFun DFT Library
   Mihaly Kallay                                 : mrcc  (arbitrary order and MRCC methods)
   Jiri Pittner, Ondrej Demel                    : Mk-CCSD
   Frank Weinhold                                : gennbo (NPA and NBO analysis)
   Christopher J. Cramer and Donald G. Truhlar   : smd solvation model
   Lars Goerigk                                  : TD-DFT with DH, B97 family of functionals
   V. Asgeirsson, H. Jonsson                     : NEB implementation
   FAccTs GmbH                                   : IRC, NEB, NEB-TS, DLPNO-Multilevel, CI-OPT
                                                   MM, QMMM, 2- and 3-layer-ONIOM, Crystal-QMMM,
                                                   LR-CPCM, SF, NACMEs, symmetry and pop. for TD-DFT,
                                                   nearIR, NL-DFT gradient (VV10), updates on ESD,
                                                   ML-optimized integration grids
   S Lehtola, MJT Oliveira, MAL Marques          : LibXC Library
   Liviu Ungur et al                             : ANISO software


 Your calculation uses the libint2 library for the computation of 2-el integrals
 For citations please refer to: http://libint.valeyev.net

 Your ORCA version has been built with support for libXC version: 5.1.0
 For citations please refer to: https://tddft.org/programs/libxc/

 This ORCA versions uses:
   CBLAS   interface :  Fast vector & matrix operations
   LAPACKE interface :  Fast linear algebra routines
   SCALAPACK package :  Parallel linear algebra routines
   Shared memory     :  Shared parallel matrices
   BLAS/LAPACK       :  OpenBLAS 0.3.15  USE64BITINT DYNAMIC_ARCH NO_AFFINITY SkylakeX SINGLE_THREADED
        Core in use  :  SkylakeX
   Copyright (c) 2011-2014, The OpenBLAS Project




################################################################################


                                COMPOUND JOB MainJOB 
Basename: ch3i-cation_lw1x-p34_Compound_0

################################################################################

================================================================================
                                       INPUT FILE
================================================================================
NAME = ch3i-cation_lw1x-p34_Compound_0.inp
|  1> %Maxcore 2000
|  2>  %Pal nprocs 30 End
|  3>  
|  4>  * xyz 1 2
|  5>  I       -0.322132    0.000035   -0.000353 
|  6>  C        1.798900    0.000748   -0.006257 
|  7>  H        2.112967    0.937631   -0.453678 
|  8>  H        2.056884   -0.054901    1.053460 
|  9>  H        2.109750   -0.889078   -0.543538 
| 10>  *
| 11>  
| 12> 
| 13>                          ****END OF INPUT****
================================================================================
================================================================================

cite the ECPs for I  [Def2-ECP] as follows:
Ce-Yb(ecp-28): M. Dolg, H. Stoll, H.Preuss, J. Chem. Phys., 1989, 90, 1730-1734.
Y-Cd(ecp-28), Hf-Hg(ecp-46): D. Andrae,U. Haeussermann, M. Dolg, H. Stoll, H. Preuss, Theor. Chim. Acta, 1990, 77, 123-141.
In-Sb(ecp-28), Tl-Bi(ecp-46): B. Metz, H. Stoll, M. Dolg, J. Chem. Phys., 2000, 113, 2563-2569.
Te-Xe(ecp-28), Po-Rn(ecp-46): K. A. Peterson, D. Figgen, E. Goll, H. Stoll, M. Dolg, J. Chem. Phys., 2003, 119, 11113-11123.
Rb(ecp-28), Cs(ecp-46): T. Leininger, A. Nicklass, W. Kuechle, H. Stoll, M. Dolg, A. Bergner, Chem. Phys. Lett., 1996, 255, 274-280.
Sr(ecp-28), Ba(ecp-46): M. Kaupp, P. V. Schleyer, H. Stoll and H. Preuss, J. Chem. Phys., 1991, 94, 1360-1366.
La(ecp-46): M. Dolg, H. Stoll, A. Savin, H. Preuss, Theor. Chim. Acta, 1989, 75, 173-194.
Lu(ecp-28): X. Cao, M. Dolg, J. Chem. Phys., 2001, 115, 7348-7355.

ECP parameters for I  [Def2-ECP] have been obtained from:
TURBOMOLE (7.0.2)

----- Orbital basis set information -----
Your calculation utilizes the basis: def2-SVP
   F. Weigend and R. Ahlrichs, Phys. Chem. Chem. Phys. 7, 3297 (2005).



################################################################################


                                COMPOUND JOB  1 
Basename: ch3i-cation_lw1x-p34_Compound_1
NOTE: please remember that MaxCore and PAL settings will be ignored.

################################################################################

================================================================================
                                       INPUT FILE
================================================================================
NAME = ch3i-cation_lw1x-p34_Compound_1.inp
|  1>     ! DKH DefGrid3 RIJCOSX TightPNO DLPNO-MP2 MiniPrint NoPop
|  2>     %Basis
|  3>       Basis         "cc-pVTZ-DK"
|  4>       AuxJ          "AutoAux"
|  5>       AuxC          "AutoAux"
|  6>       CABS          "AutoAux"
|  7>       NewGTO     Ga "cc-pVTZ-DK" End
|  8>       NewAuxjGTO Ga "AutoAux" End
|  9>       NewAuxcGTO Ga "AutoAux" End
| 10>       NewCabsGTO Ga "AutoAux" End
| 11>       NewGTO     Ge "cc-pVTZ-DK" End
| 12>       NewAuxjGTO Ge "AutoAux" End
| 13>       NewAuxcGTO Ge "AutoAux" End
| 14>       NewCabsGTO Ge "AutoAux" End
| 15>       NewGTO     As "cc-pVTZ-DK" End
| 16>       NewAuxjGTO As "AutoAux" End
| 17>       NewAuxcGTO As "AutoAux" End
| 18>       NewCabsGTO As "AutoAux" End
| 19>       NewGTO     Se "cc-pVTZ-DK" End
| 20>       NewAuxjGTO Se "AutoAux" End
| 21>       NewAuxcGTO Se "AutoAux" End
| 22>       NewCabsGTO Se "AutoAux" End
| 23>       NewGTO     Br "cc-pVTZ-DK" End
| 24>       NewAuxjGTO Br "AutoAux" End
| 25>       NewAuxcGTO Br "AutoAux" End
| 26>       NewCabsGTO Br "AutoAux" End
| 27>       NewGTO     Kr "cc-pVTZ-DK" End
| 28>       NewAuxjGTO Kr "AutoAux" End
| 29>       NewAuxcGTO Kr "AutoAux" End
| 30>       NewCabsGTO Kr "AutoAux" End
| 31>       NewGTO     In "cc-pVTZ-DK" End
| 32>       NewAuxjGTO In "AutoAux" End
| 33>       NewAuxcGTO In "AutoAux" End
| 34>       NewCabsGTO In "AutoAux" End
| 35>       NewGTO     Sn "cc-pVTZ-DK" End
| 36>       NewAuxjGTO Sn "AutoAux" End
| 37>       NewAuxcGTO Sn "AutoAux" End
| 38>       NewCabsGTO Sn "AutoAux" End
| 39>       NewGTO     Sb "cc-pVTZ-DK" End
| 40>       NewAuxjGTO Sb "AutoAux" End
| 41>       NewAuxcGTO Sb "AutoAux" End
| 42>       NewCabsGTO Sb "AutoAux" End
| 43>       NewGTO     Te "cc-pVTZ-DK" End
| 44>       NewAuxjGTO Te "AutoAux" End
| 45>       NewAuxcGTO Te "AutoAux" End
| 46>       NewCabsGTO Te "AutoAux" End
| 47>       NewGTO     I  "cc-pVTZ-DK" End
| 48>       NewAuxjGTO I  "AutoAux" End
| 49>       NewAuxcGTO I  "AutoAux" End
| 50>       NewCabsGTO I  "AutoAux" End
| 51>       NewGTO     Xe "cc-pVTZ-DK" End
| 52>       NewAuxjGTO Xe "AutoAux" End
| 53>       NewAuxcGTO Xe "AutoAux" End
| 54>       NewCabsGTO Xe "AutoAux" End
| 55>     End
| 56> 
| 57>                          ****END OF INPUT****
================================================================================
Warning! AutoAux has not been tested for CABS - use at your own risk!
================================================================================

----- Orbital basis set information -----
Your calculation utilizes the basis: cc-pVTZ-DK 
    H-He, B-Ne : Obtained from the ccRepo (grant-hill.group.shef.ac.uk/ccrepo) Feb. 2017
                 W. A. de Jong, R. J. Harrison, D. A. Dixon, J. Chem. Phys. 114, 48 (2001)
  Li-Be, Na-Mg : Obtained from the Peterson Research Group Website (tyr0.chem.wsu.edu/~kipeters) Feb. 2017
                 B. P. Prascher, D. E. Woon, K. A. Peterson, T. H. Dunning, Jr., A. K. Wilson, Theor. Chem. Acc. 128, 69 (2011)
  Al-Ar, Ga-Kr : Obtained from the EMSL Basis Set Exchange (bse.pnl.gov) Feb. 2017
                 W. A. de Jong, R. J. Harrison, D. A. Dixon, J. Chem. Phys. 114, 48 (2001)
         Sc-Zn : Obtained from the ccRepo (grant-hill.group.shef.ac.uk/ccrepo) Feb. 2017
                 N. B. Balabanov, K. A. Peterson, J. Chem. Phys. 123, 064107 (2005)
                 N. B. Balabanov, K. A. Peterson, J. Chem. Phys. 125, 074110 (2006)
          Y-Pd : Obtained from the ccRepo (grant-hill.group.shef.ac.uk/ccrepo) Feb. 2017
                 K. A. Peterson, D. Figgen, M. Dolg, H. Stoll, J. Chem. Phys. 126, 124101 (2007)
  Ag-Cd, Au-Hg : Obtained from the ccRepo (grant-hill.group.shef.ac.uk/ccrepo) Feb. 2017
                 K. A. Peterson, C. Puzzarini, Theor. Chem. Acc. 114, 283 (2005)
  In-Xe, Tl-Rn : Obtained from the ccRepo (grant-hill.group.shef.ac.uk/ccrepo) Feb. 2017
                 D. H. Bross, K. A. Peterson, Theor. Chem. Acc. 133, 1434 (2014)
         Hf-Pt : Obtained from the ccRepo (grant-hill.group.shef.ac.uk/ccrepo) Feb. 2017
                 D. Figgen, K. A. Peterson, M. Dolg, H. Stoll, J. Chem. Phys. 130, 164108 (2009)

The basis set includes element-specific modifications.

----- AuxJ basis set information -----
Your calculation utilizes the AutoAux generation procedure.
  G. L. Stoychev, A. A. Auer, F. Neese, J. Chem. Theory Comput. 13, 554 (2017)

The basis set includes element-specific modifications.

----- AuxC basis set information -----
Your calculation utilizes the AutoAux generation procedure.
  G. L. Stoychev, A. A. Auer, F. Neese, J. Chem. Theory Comput. 13, 554 (2017)

The basis set includes element-specific modifications.

----- CABS information -----
Your calculation utilizes the AutoAux generation procedure.
  G. L. Stoychev, A. A. Auer, F. Neese, J. Chem. Theory Comput. 13, 554 (2017)

The basis set includes element-specific modifications.


                    <<< The CABS basis set will be decontracted >>>

================================================================================
                                        WARNINGS
                       Please study these warnings very carefully!
================================================================================


WARNING: your system is open-shell and RHF/RKS was chosen
  ===> : WILL SWITCH to UHF/UKS


WARNING: No MP2 level density has been requested!
         To caclulate MP2 level properties use
         %mp2 Density relaxed end
         or
         %mp2 Density unrelaxed end

WARNING: Post HF methods need fully converged wavefunctions
  ===> : Setting SCFConvForced true
         You can overwrite this default with %scf ConvForced false 


INFO   : the flag for use of the SHARK integral package has been found!


                       ****************************
                       * Single Point Calculation *
                       ****************************

---------------------------------
CARTESIAN COORDINATES (ANGSTROEM)
---------------------------------
  I     -0.322132    0.000035   -0.000353
  C      1.798900    0.000748   -0.006257
  H      2.112967    0.937631   -0.453678
  H      2.056884   -0.054901    1.053460
  H      2.109750   -0.889078   -0.543538

----------------------------
CARTESIAN COORDINATES (A.U.)
----------------------------
  NO LB      ZA    FRAG     MASS         X           Y           Z
   0 I    53.0000    0   126.900   -0.608741    0.000066   -0.000667
   1 C     6.0000    0    12.011    3.399428    0.001414   -0.011824
   2 H     1.0000    0     1.008    3.992929    1.771866   -0.857327
   3 H     1.0000    0     1.008    3.886947   -0.103748    1.990751
   4 H     1.0000    0     1.008    3.986850   -1.680114   -1.027138



           ************************************************************
           *        Program running with 30 parallel MPI-processes    *
           *              working on a common directory               *
           ************************************************************
------------------------------------------------------------------------------
                   ___                                                        
                  /   \      - P O W E R E D   B Y -                         
                 /     \                                                     
                 |  |  |   _    _      __       _____    __    __             
                 |  |  |  | |  | |    /  \     |  _  \  |  |  /  |          
                  \  \/   | |  | |   /    \    | | | |  |  | /  /          
                 / \  \   | |__| |  /  /\  \   | |_| |  |  |/  /          
                |  |  |   |  __  | /  /__\  \  |    /   |      \           
                |  |  |   | |  | | |   __   |  |    \   |  |\   \          
                \     /   | |  | | |  |  |  |  | |\  \  |  | \   \       
                 \___/    |_|  |_| |__|  |__|  |_| \__\ |__|  \__/        
                                                                              
                      - O R C A' S   B I G   F R I E N D -                    
                                      &                                       
                       - I N T E G R A L  F E E D E R -                       
                                                                              
 v1 FN, 2020, v2 2021                                                         
------------------------------------------------------------------------------


Reading SHARK input file ch3i-cation_lw1x-p34_Compound_1.SHARKINP.tmp ... ok
----------------------
SHARK INTEGRAL PACKAGE
----------------------

Number of atoms                             ...      5
Number of basis functions                   ...    124
Number of shells                            ...     46
Maximum angular momentum                    ...      3
Integral batch strategy                     ... SHARK/LIBINT Hybrid
RI-J (if used) integral strategy            ... SPLIT-RIJ (Revised 2003 algorithm where possible)
Printlevel                                  ...      1
Contraction scheme used                     ... SEGMENTED contraction
Coulomb Range Separation                    ... NOT USED
Exchange Range Separation                   ... NOT USED
Finite Nucleus Model                        ... NOT USED
Auxiliary Coulomb fitting basis             ... AVAILABLE
   # of basis functions in Aux-J            ...    793
   # of shells in Aux-J                     ...    199
   Maximum angular momentum in Aux-J        ...      5
Auxiliary J/K fitting basis                 ... NOT available
Auxiliary Correlation fitting basis         ... AVAILABLE
   # of basis functions in Aux-C            ...    793
   # of shells in Aux-C                     ...    199
   Maximum angular momentum in Aux-C        ...      5
Auxiliary 'external' fitting basis          ... NOT available
Integral threshold                          ...     1.000000e-10
Primitive cut-off                           ...     1.000000e-11
Primitive pair pre-selection threshold      ...     1.000000e-11

Calculating pre-screening integrals         ... done (  5.7 sec) Dimension = 46
Organizing shell pair data                  ... done (  0.1 sec)
Shell pair information
Total number of shell pairs                 ...      1081
Shell pairs after pre-screening             ...      1081
Total number of primitive shell pairs       ...     43837
Primitive shell pairs kept                  ...     38413
          la=0 lb=0:    210 shell pairs
          la=1 lb=0:    300 shell pairs
          la=1 lb=1:    120 shell pairs
          la=2 lb=0:    180 shell pairs
          la=2 lb=1:    135 shell pairs
          la=2 lb=2:     45 shell pairs
          la=3 lb=0:     40 shell pairs
          la=3 lb=1:     30 shell pairs
          la=3 lb=2:     18 shell pairs
          la=3 lb=3:      3 shell pairs

Calculating one electron integrals          ... done (  0.0 sec)
Calculating RI/J V-Matrix + Cholesky decomp.... done (  0.1 sec)
Calculating RI/C V-Matrix + Cholesky decomp.... done (  0.1 sec)
Calculating Nuclear repulsion               ... done (  0.0 sec) ENN=    120.941697607338 Eh

SHARK setup successfully completed in   9.4 seconds

Maximum memory used throughout the entire GTOINT-calculation: 586.8 MB


           ************************************************************
           *        Program running with 30 parallel MPI-processes    *
           *              working on a common directory               *
           ************************************************************
------------------------------------------------------------------------------
                          ORCA RELATIVISTIC HAMILTONIAN
------------------------------------------------------------------------------

Relativistic Method            ... DKH
Order of DKH treatment         ...   2
Treatment of potential         ... V(e,N)
Eps parameter for DKH          ...   0.00000000010000
Nucleus model                  ... Point Nucleus
Speed of light used            ... 137.03598950000000


            ************************************************
            *        DOUGLAS-KROLL-HESS HAMILTONIAN        *
            *   Programmed by FN according to literature   *
            *        procedures. Special thanks to         *
            *       B.A. Hess, M. Reiher and A. Wolf       *
            *     University Erlangen-Nuernberg/Bonn       *
            ************************************************

Uncontracting the basis (second version)       ... done
Basis set overlap                              ... done
Number of contracted basis functions           ...  124
Number of uncontracted basis functions         ...  258
Initializing the DKH file                      ... done
Calculating the relativistic integrals         ... done
Storing DKH matrices                           ... done
Code used for DKH trafo                        ... ORCA
Computing the DKH transformation               ... done
Storing the transformation variables           ... done
Transforming V and pVp to p**2 space           ... done
First transformation of V and pVp              ... done
Second transformation of Veff                  ... done
Adding kinetic energy                          ... done
Back transformation of Veff to r-space         ... done
Recovering DKH matrices                        ... done
Recontracting the H-matrix (second version)    ... done
Computing the DKH correction to the H-matrix   ... done
Reading the original H-matrix                  ... done
Adding DKH correction to the H-matrix          ... done
Storing the new modified H-matrix              ... done

Maximum memory used throughout the entire REL-calculation: 46.9 MB


           ************************************************************
           *        Program running with 30 parallel MPI-processes    *
           *              working on a common directory               *
           ************************************************************

Diagonalization of the overlap matrix:
Smallest eigenvalue                        ... 1.808e-03
Time for diagonalization                   ...    0.018 sec
Threshold for overlap eigenvalues          ... 1.000e-08
Number of eigenvalues below threshold      ... 0
Time for construction of square roots      ...    0.019 sec
Total time needed                          ...    0.039 sec

Time for model grid setup =    0.141 sec

Loading DKH relativistic densities                 ... done
Calculating cut-offs                               ... done
Initializing the effective Hamiltonian             ... done
Setting up the integral package (SHARK)            ... done
Starting the Coulomb interaction                   ... done (   0.2 sec)
Reading the grid                                   ... done
Mapping shells                                     ... done
Starting the XC term evaluation                    ... done (   0.0 sec)
Transforming the Hamiltonian                       ... done (   0.0 sec)
Diagonalizing the Hamiltonian                      ... done (   0.0 sec)
Back transforming the eigenvectors                 ... done (   0.0 sec)
Now organizing SCF variables                       ... done
--------------------
COSX GRID GENERATION
--------------------

GRIDX 1
-------
General Integration Accuracy     IntAcc      ... 4.020
Radial Grid Type                 RadialGrid  ... OptM3 with GC (2021)
Angular Grid (max. ang.)         AngularGrid ... 2 (Lebedev-110)
Angular grid pruning method      GridPruning ... 4 (adaptive)
Weight generation scheme         WeightScheme... Becke
Basis function cutoff            BFCut       ... 1.0000e-10
Integration weight cutoff        WCut        ... 1.0000e-14
Angular grids for H and He will be reduced by one unit
Partially contracted basis set               ... on
Rotationally invariant grid construction     ... off

Total number of grid points                  ...     7462
Total number of batches                      ...      119
Average number of points per batch           ...       62
Average number of grid points per atom       ...     1492
UseSFitting                                  ... on

GRIDX 2
-------
General Integration Accuracy     IntAcc      ... 4.338
Radial Grid Type                 RadialGrid  ... OptM3 with GC (2021)
Angular Grid (max. ang.)         AngularGrid ... 3 (Lebedev-194)
Angular grid pruning method      GridPruning ... 4 (adaptive)
Weight generation scheme         WeightScheme... Becke
Basis function cutoff            BFCut       ... 1.0000e-10
Integration weight cutoff        WCut        ... 1.0000e-14
Angular grids for H and He will be reduced by one unit
Partially contracted basis set               ... on
Rotationally invariant grid construction     ... off

Total number of grid points                  ...    15941
Total number of batches                      ...      252
Average number of points per batch           ...       63
Average number of grid points per atom       ...     3188
UseSFitting                                  ... on

GRIDX 3
-------
General Integration Accuracy     IntAcc      ... 4.871
Radial Grid Type                 RadialGrid  ... OptM3 with GC (2021)
Angular Grid (max. ang.)         AngularGrid ... 4 (Lebedev-302)
Angular grid pruning method      GridPruning ... 4 (adaptive)
Weight generation scheme         WeightScheme... Becke
Basis function cutoff            BFCut       ... 1.0000e-10
Integration weight cutoff        WCut        ... 1.0000e-14
Angular grids for H and He will be reduced by one unit
Partially contracted basis set               ... on
Rotationally invariant grid construction     ... off

Total number of grid points                  ...    32190
Total number of batches                      ...      506
Average number of points per batch           ...       63
Average number of grid points per atom       ...     6438
UseSFitting                                  ... on

Time for X-Grid setup             =    0.629 sec

 re-compute Schwartz prescreening matrix in partically contracted basis (1) ...done (   0.119 sec)
--------------
SCF ITERATIONS
--------------
ITER       Energy         Delta-E        Max-DP      RMS-DP      [F,P]     Damp
               ***  Starting incremental Fock matrix formation  ***
  0  -7150.0705194728   0.000000000000 0.02993289  0.00060538  0.2741154 0.7000
  1  -7150.1076947976  -0.037175324776 0.02727529  0.00052334  0.1817545 0.7000
                               ***Turning on DIIS***
  2  -7150.1302922123  -0.022597414706 0.02191455  0.00039649  0.1129140 0.7000
  3  -7149.7379097709   0.392382441351 0.06128661  0.00105208  0.0711601 0.0000
  4  -7150.2347135864  -0.496803815528 0.00828319  0.00013836  0.0126107 0.0000
  5  -7150.1645295435   0.070184042919 0.00538267  0.00008591  0.0063842 0.0000
  6  -7150.1722459262  -0.007716382655 0.00310487  0.00004302  0.0026637 0.0000
  7  -7150.1744791836  -0.002233257391 0.00181884  0.00002280  0.0013837 0.0000
  8  -7150.1772657938  -0.002786610221 0.00156308  0.00001894  0.0006585 0.0000
               *** Restarting incremental Fock matrix formation ***
                                   *** Resetting DIIS ***
  9  -7150.1801237900  -0.002857996197 0.00041163  0.00000560  0.0000887 0.0000
 10  -7150.1800993753   0.000024414710 0.00050144  0.00000633  0.0000426 0.0000
 11  -7150.1801221581  -0.000022782848 0.00034367  0.00000419  0.0000219 0.0000
 12  -7150.1801170999   0.000005058177 0.00028880  0.00000355  0.0000156 0.0000
 13  -7150.1801111307   0.000005969287 0.00027332  0.00000337  0.0000102 0.0000
 14  -7150.1801141151  -0.000002984403 0.00021360  0.00000266  0.0000057 0.0000
 15  -7150.1801324038  -0.000018288727 0.00011685  0.00000147  0.0000023 0.0000
 16  -7150.1801277214   0.000004682399 0.00002252  0.00000029  0.0000022 0.0000
                 **** Energy Check signals convergence ****

               *****************************************************
               *                     SUCCESS                       *
               *           SCF CONVERGED AFTER  17 CYCLES          *
               *****************************************************

Old exchange energy                            =   -186.419290423 Eh
New exchange energy                            =   -186.419254584 Eh
Exchange energy change after final integration =      0.000035839 Eh
Total energy after final integration           =  -7150.180091090 Eh
Final COS-X integration done in                =     0.393 sec
Total Energy       :        -7150.18009109 Eh         -194566.29184 eV
  Last Energy change         ...    7.9218e-07  Tolerance :   1.0000e-06
  Last MAX-Density change    ...    0.0000e+00  Tolerance :   1.0000e-05
             **** THE GBW FILE WAS UPDATED (ch3i-cation_lw1x-p34_Compound_1.gbw) ****
             **** DENSITY ch3i-cation_lw1x-p34_Compound_1.scfp WAS UPDATED ****
             **** ENERGY FILE WAS UPDATED (ch3i-cation_lw1x-p34_Compound_1.en.tmp) ****
----------------------
UHF SPIN CONTAMINATION
----------------------

Expectation value of <S**2>     :     0.762613
Ideal value S*(S+1) for S=0.5   :     0.750000
Deviation                       :     0.012613

             **** THE GBW FILE WAS UPDATED (ch3i-cation_lw1x-p34_Compound_1.gbw) ****
             **** DENSITY ch3i-cation_lw1x-p34_Compound_1.scfp WAS UPDATED ****
----------------
ORBITAL ENERGIES
----------------
                 SPIN UP ORBITALS
  NO   OCC          E(Eh)            E(eV) 
   0   1.0000   -1224.402048    -33317.6736 
   1   1.0000    -193.116104     -5254.9563 
   2   1.0000    -173.303769     -4715.8353 
   3   1.0000    -173.300869     -4715.7564 
   4   1.0000    -173.300186     -4715.7378 
   5   1.0000     -40.776697     -1109.5903 
   6   1.0000     -34.177753      -930.0239 
   7   1.0000     -34.170902      -929.8375 
   8   1.0000     -34.167758      -929.7520 
   9   1.0000     -24.217001      -658.9781 
  10   1.0000     -24.216474      -658.9637 
  11   1.0000     -24.213318      -658.8779 
  12   1.0000     -24.210098      -658.7903 
  13   1.0000     -24.209636      -658.7777 
  14   1.0000     -11.514483      -313.3250 
  15   1.0000      -8.033006      -218.5892 
  16   1.0000      -5.883998      -160.1117 
  17   1.0000      -5.868406      -159.6874 
  18   1.0000      -5.860627      -159.4758 
  19   1.0000      -2.600162       -70.7540 
  20   1.0000      -2.597959       -70.6941 
  21   1.0000      -2.588652       -70.4408 
  22   1.0000      -2.578899       -70.1754 
  23   1.0000      -2.578068       -70.1528 
  24   1.0000      -1.266699       -34.4686 
  25   1.0000      -1.118894       -30.4466 
  26   1.0000      -0.836857       -22.7720 
  27   1.0000      -0.834355       -22.7040 
  28   1.0000      -0.719887       -19.5891 
  29   1.0000      -0.698578       -19.0093 
  30   1.0000      -0.643387       -17.5074 
  31   0.0000      -0.127547        -3.4707 
  32   0.0000      -0.024701        -0.6722 
  33   0.0000       0.017627         0.4797 
  34   0.0000       0.023088         0.6283 
  35   0.0000       0.097506         2.6533 
  36   0.0000       0.106754         2.9049 
  37   0.0000       0.115707         3.1485 
  38   0.0000       0.121474         3.3055 
  39   0.0000       0.130746         3.5578 
  40   0.0000       0.141176         3.8416 
  41   0.0000       0.158016         4.2998 
  42   0.0000       0.175910         4.7868 
  43   0.0000       0.239469         6.5163 
  44   0.0000       0.260564         7.0903 
  45   0.0000       0.264385         7.1943 
  46   0.0000       0.415561        11.3080 
  47   0.0000       0.425145        11.5688 
  48   0.0000       0.426537        11.6067 
  49   0.0000       0.439033        11.9467 
  50   0.0000       0.582750        15.8574 
  51   0.0000       0.593737        16.1564 
  52   0.0000       0.622419        16.9369 
  53   0.0000       0.783129        21.3100 
  54   0.0000       0.789485        21.4830 
  55   0.0000       0.817808        22.2537 
  56   0.0000       0.856107        23.2958 
  57   0.0000       0.872196        23.7337 
  58   0.0000       0.906650        24.6712 
  59   0.0000       0.915954        24.9244 
  60   0.0000       0.924531        25.1578 
  61   0.0000       0.971825        26.4447 
  62   0.0000       0.973072        26.4786 
  63   0.0000       1.059172        28.8215 
  64   0.0000       1.171195        31.8698 
  65   0.0000       1.188579        32.3429 
  66   0.0000       1.209328        32.9075 
  67   0.0000       1.236181        33.6382 
  68   0.0000       1.246747        33.9257 
  69   0.0000       1.329599        36.1802 
  70   0.0000       1.341630        36.5076 
  71   0.0000       1.358933        36.9784 
  72   0.0000       1.364510        37.1302 
  73   0.0000       1.476534        40.1785 
  74   0.0000       1.496086        40.7106 
  75   0.0000       1.497728        40.7552 
  76   0.0000       1.583721        43.0952 
  77   0.0000       1.613057        43.8935 
  78   0.0000       1.629916        44.3523 
  79   0.0000       1.744626        47.4737 
  80   0.0000       2.003297        54.5125 
  81   0.0000       2.239648        60.9439 
  82   0.0000       2.254798        61.3562 
  83   0.0000       2.395697        65.1902 
  84   0.0000       2.716674        73.9245 
  85   0.0000       2.718645        73.9781 
  86   0.0000       2.744807        74.6900 
  87   0.0000       2.881572        78.4116 
  88   0.0000       2.889090        78.6161 
  89   0.0000       2.891585        78.6840 
  90   0.0000       3.028107        82.3990 
  91   0.0000       3.038788        82.6896 
  92   0.0000       3.100841        84.3782 
  93   0.0000       3.174666        86.3871 
  94   0.0000       3.178941        86.5034 
  95   0.0000       3.331144        90.6450 
  96   0.0000       3.462066        94.2076 
  97   0.0000       3.473677        94.5236 
  98   0.0000       3.484442        94.8165 
  99   0.0000       3.521809        95.8333 
 100   0.0000       3.523619        95.8826 
 101   0.0000       3.567887        97.0871 
 102   0.0000       3.899784       106.1185 
 103   0.0000       3.936611       107.1206 
 104   0.0000       3.954934       107.6192 
 105   0.0000       3.992197       108.6332 
 106   0.0000       3.994996       108.7094 
 107   0.0000       4.074729       110.8790 
 108   0.0000       4.113743       111.9406 
 109   0.0000       4.129565       112.3712 
 110   0.0000       4.258406       115.8771 
 111   0.0000       4.619082       125.6916 
 112   0.0000       4.823051       131.2419 
 113   0.0000       4.851530       132.0168 
 114   0.0000       5.037353       137.0733 
 115   0.0000       5.070069       137.9636 
 116   0.0000       5.092241       138.5669 
 117   0.0000       5.258491       143.0908 
 118   0.0000       5.278512       143.6356 
 119   0.0000       5.394483       146.7913 
 120   0.0000       5.492404       149.4559 
 121   0.0000       5.893405       160.3677 
 122   0.0000       5.918382       161.0474 
 123   0.0000      12.903323       351.1173 

                 SPIN DOWN ORBITALS
  NO   OCC          E(Eh)            E(eV) 
   0   1.0000   -1224.399523    -33317.6049 
   1   1.0000    -193.115193     -5254.9316 
   2   1.0000    -173.300184     -4715.7377 
   3   1.0000    -173.299705     -4715.7247 
   4   1.0000    -173.298328     -4715.6873 
   5   1.0000     -40.773861     -1109.5132 
   6   1.0000     -34.169754      -929.8063 
   7   1.0000     -34.167642      -929.7488 
   8   1.0000     -34.166967      -929.7304 
   9   1.0000     -24.214362      -658.9063 
  10   1.0000     -24.214237      -658.9029 
  11   1.0000     -24.211178      -658.8196 
  12   1.0000     -24.210026      -658.7883 
  13   1.0000     -24.209326      -658.7693 
  14   1.0000     -11.515527      -313.3534 
  15   1.0000      -8.025229      -218.3776 
  16   1.0000      -5.866396      -159.6328 
  17   1.0000      -5.860764      -159.4795 
  18   1.0000      -5.859423      -159.4430 
  19   1.0000      -2.589779       -70.4715 
  20   1.0000      -2.588713       -70.4425 
  21   1.0000      -2.579685       -70.1968 
  22   1.0000      -2.577968       -70.1501 
  23   1.0000      -2.575929       -70.0946 
  24   1.0000      -1.236206       -33.6389 
  25   1.0000      -1.060284       -28.8518 
  26   1.0000      -0.833360       -22.6769 
  27   1.0000      -0.818266       -22.2662 
  28   1.0000      -0.710316       -19.3287 
  29   1.0000      -0.624817       -17.0021 
  30   0.0000      -0.284007        -7.7282 
  31   0.0000      -0.117389        -3.1943 
  32   0.0000      -0.022780        -0.6199 
  33   0.0000       0.023799         0.6476 
  34   0.0000       0.026322         0.7163 
  35   0.0000       0.117160         3.1881 
  36   0.0000       0.127665         3.4740 
  37   0.0000       0.138173         3.7599 
  38   0.0000       0.145132         3.9492 
  39   0.0000       0.155098         4.2204 
  40   0.0000       0.162541         4.4230 
  41   0.0000       0.188664         5.1338 
  42   0.0000       0.201903         5.4941 
  43   0.0000       0.259797         7.0694 
  44   0.0000       0.268096         7.2953 
  45   0.0000       0.269795         7.3415 
  46   0.0000       0.417871        11.3708 
  47   0.0000       0.424998        11.5648 
  48   0.0000       0.426398        11.6029 
  49   0.0000       0.450681        12.2637 
  50   0.0000       0.595226        16.1969 
  51   0.0000       0.599549        16.3146 
  52   0.0000       0.627617        17.0783 
  53   0.0000       0.803515        21.8648 
  54   0.0000       0.805723        21.9248 
  55   0.0000       0.824546        22.4370 
  56   0.0000       0.896097        24.3840 
  57   0.0000       0.909599        24.7514 
  58   0.0000       0.922486        25.1021 
  59   0.0000       0.925122        25.1738 
  60   0.0000       0.932272        25.3684 
  61   0.0000       0.978754        26.6332 
  62   0.0000       0.982327        26.7305 
  63   0.0000       1.062560        28.9137 
  64   0.0000       1.185258        32.2525 
  65   0.0000       1.196644        32.5623 
  66   0.0000       1.216346        33.0985 
  67   0.0000       1.246366        33.9153 
  68   0.0000       1.252716        34.0881 
  69   0.0000       1.351948        36.7884 
  70   0.0000       1.358877        36.9769 
  71   0.0000       1.375839        37.4385 
  72   0.0000       1.377490        37.4834 
  73   0.0000       1.497025        40.7361 
  74   0.0000       1.501294        40.8523 
  75   0.0000       1.508242        41.0414 
  76   0.0000       1.613184        43.8970 
  77   0.0000       1.627431        44.2847 
  78   0.0000       1.635176        44.4954 
  79   0.0000       1.752963        47.7005 
  80   0.0000       2.013816        54.7987 
  81   0.0000       2.240219        60.9595 
  82   0.0000       2.257952        61.4420 
  83   0.0000       2.396448        65.2107 
  84   0.0000       2.717517        73.9474 
  85   0.0000       2.718118        73.9637 
  86   0.0000       2.743941        74.6664 
  87   0.0000       2.882230        78.4295 
  88   0.0000       2.890390        78.6515 
  89   0.0000       2.890797        78.6626 
  90   0.0000       3.028833        82.4187 
  91   0.0000       3.039248        82.7021 
  92   0.0000       3.100521        84.3695 
  93   0.0000       3.173071        86.3437 
  94   0.0000       3.176501        86.4370 
  95   0.0000       3.331964        90.6674 
  96   0.0000       3.462401        94.2167 
  97   0.0000       3.474772        94.5533 
  98   0.0000       3.484657        94.8223 
  99   0.0000       3.522724        95.8582 
 100   0.0000       3.524027        95.8936 
 101   0.0000       3.568560        97.1055 
 102   0.0000       3.900740       106.1445 
 103   0.0000       3.937031       107.1321 
 104   0.0000       3.954841       107.6167 
 105   0.0000       3.993209       108.6607 
 106   0.0000       3.995480       108.7226 
 107   0.0000       4.075362       110.8962 
 108   0.0000       4.114668       111.9658 
 109   0.0000       4.130516       112.3971 
 110   0.0000       4.258772       115.8871 
 111   0.0000       4.619797       125.7111 
 112   0.0000       4.823619       131.2573 
 113   0.0000       4.851735       132.0224 
 114   0.0000       5.037382       137.0741 
 115   0.0000       5.070035       137.9627 
 116   0.0000       5.091696       138.5521 
 117   0.0000       5.259255       143.1116 
 118   0.0000       5.279105       143.6518 
 119   0.0000       5.394721       146.7978 
 120   0.0000       5.492425       149.4565 
 121   0.0000       5.893564       160.3720 
 122   0.0000       5.919417       161.0755 
 123   0.0000      12.902861       351.1047 
Total SCF time: 0 days 0 hours 0 min 22 sec 

Maximum memory used throughout the entire SCF-calculation: 78.2 MB


           ************************************************************
           *        Program running with 30 parallel MPI-processes    *
           *              working on a common directory               *
           ************************************************************

------------------------------------------------------------------------------
                                ORCA  MP2 
------------------------------------------------------------------------------

Freezing NCore=38 chemical core electrons
Initializing SHARK ... done


------------------------------------------------------------------------------
                           ORCA ORBITAL LOCALIZATION
------------------------------------------------------------------------------

Input orbitals are from                  ... ch3i-cation_lw1x-p34_Compound_1.gbw
Output orbitals are to                   ... ch3i-cation_lw1x-p34_Compound_1.loc
Max. number of iterations                ... 128
Localizations seeded randomly            ... off
Convergence tolerance                    ... 1.000e-06
Treshold for strong local MOs            ... 9.500e-01
Treshold for bond MOs                    ... 8.500e-01
Operator                                 ... 0
Orbital range for localization           ... 19 to 30
Localization criterion                   ... FOSTER-BOYS (AUGMENTED HESSIAN)
Doing the dipole integrals     ... o.k.
Initial value of the localization sum :    44.673588
ITERATION   0 : L=   54.4478368152 DL=  9.77e+00 (AVERGE_DL)=    0.3848307155 
ITERATION   1 : L=   55.4336079141 DL=  9.86e-01 (AVERGE_DL)=    0.1222126251 
ITERATION   2 : L=   55.6074855825 DL=  1.74e-01 (AVERGE_DL)=    0.0513274793 
ITERATION   3 : L=   55.6153389416 DL=  7.85e-03 (AVERGE_DL)=    0.0109082670 
ITERATION   4 : L=   55.6161785706 DL=  8.40e-04 (AVERGE_DL)=    0.0035667425 
ITERATION   5 : L=   55.6164747504 DL=  2.96e-04 (AVERGE_DL)=    0.0021183891 
ITERATION   6 : L=   55.6166343629 DL=  1.60e-04 (AVERGE_DL)=    0.0015551112 
ITERATION   7 : L=   55.6167481248 DL=  1.14e-04 (AVERGE_DL)=    0.0013128846 
ITERATION   8 : L=   55.6168424492 DL=  9.43e-05 (AVERGE_DL)=    0.0011954737 
ITERATION   9 : L=   55.6169253359 DL=  8.29e-05 (AVERGE_DL)=    0.0011206510 
ITERATION  10 : L=   55.6169983099 DL=  7.30e-05 (AVERGE_DL)=    0.0010515070 
ITERATION  11 : L=   55.6170616628 DL=  6.34e-05 (AVERGE_DL)=    0.0009797412 
ITERATION  12 : L=   55.6171177544 DL=  5.61e-05 (AVERGE_DL)=    0.0009218855 
ITERATION  13 : L=   55.6171700109 DL=  5.23e-05 (AVERGE_DL)=    0.0008898115 
ITERATION  14 : L=   55.6172204751 DL=  5.05e-05 (AVERGE_DL)=    0.0008744191 
ITERATION  15 : L=   55.6172693673 DL=  4.89e-05 (AVERGE_DL)=    0.0008606920 
ITERATION  16 : L=   55.6173160383 DL=  4.67e-05 (AVERGE_DL)=    0.0008409143 
ITERATION  17 : L=   55.6173599300 DL=  4.39e-05 (AVERGE_DL)=    0.0008154912 
ITERATION  18 : L=   55.6174008866 DL=  4.10e-05 (AVERGE_DL)=    0.0007877529 
ITERATION  19 : L=   55.6174386746 DL=  3.78e-05 (AVERGE_DL)=    0.0007566675 
ITERATION  20 : L=   55.6174723033 DL=  3.36e-05 (AVERGE_DL)=    0.0007138101 
ITERATION  21 : L=   55.6175001376 DL=  2.78e-05 (AVERGE_DL)=    0.0006494093 
ITERATION  22 : L=   55.6175210033 DL=  2.09e-05 (AVERGE_DL)=    0.0005622697 
ITERATION  23 : L=   55.6175351387 DL=  1.41e-05 (AVERGE_DL)=    0.0004627869 
ITERATION  24 : L=   55.6175439986 DL=  8.86e-06 (AVERGE_DL)=    0.0003663906 
ITERATION  25 : L=   55.6175493666 DL=  5.37e-06 (AVERGE_DL)=    0.0002851878 
ITERATION  26 : L=   55.6175526832 DL=  3.32e-06 (AVERGE_DL)=    0.0002241710 
ITERATION  27 : L=   55.6175548737 DL=  2.19e-06 (AVERGE_DL)=    0.0001821797 
ITERATION  28 : L=   55.6175564576 DL=  1.58e-06 (AVERGE_DL)=    0.0001549145 
ITERATION  29 : L=   55.6175577013 DL=  1.24e-06 (AVERGE_DL)=    0.0001372718 
ITERATION  30 : L=   55.6175587389 DL=  1.04e-06 (AVERGE_DL)=    0.0001253848 
ITERATION  31 : L=   55.6175596380 DL=  8.99e-07 (AVERGE_DL)=    0.0001167131 
LOCALIZATION SUM CONVERGED

------------------------------------------------------
AUGMENTED HESSIAN OPTIMIZATION OF FOSTER-BOYS ORBITALS
------------------------------------------------------

Spin operator:           0
Orbital window:          19 to 30
Number of iterations:    128
Gradient tolerance:      1.000e-06
Number of pairs:         66
Davidson threshold:      2000
Diagonalization method:  LAPACK
Iter:    0   L: 55.6175596380   Grad. norm: 1.984500e-03
Iter:    1   L: 55.6175694208   Grad. norm: 2.387883e-04
   *** Likely close to a maximum now. ***
       Augmented Hessian eigenvalues:  2.10e-08 -1.29e-03 -5.40e-03 -6.28e-03 ... 
Iter:    2   L: 55.6175694313   Grad. norm: 1.657559e-07
LOCALIZATION HAS CONVERGED.

Eigenvalues of the Hessian:
  0 -1.272e-03
  1 -5.388e-03
  2 -6.270e-03
  3 -1.127e-02
  4 -1.408e-02
  5 -2.122e-02
  6 -3.876e-02
  7 -4.002e-02
  8 -5.086e-02
  9 -8.579e-02
    ...


------------------------------------------------------------------------------- 
                    LOCALIZED MOLECULAR ORBITAL COMPOSITIONS                   
------------------------------------------------------------------------------- 

The Mulliken populations for each LMO on each atom are computed
The LMO`s will be ordered according to atom index and type
  (A) Strongly localized MO`s have populations of >=0.950 on one atom
  (B) Two center bond orbitals have populations of >=0.850 on two atoms
  (C) Other MO`s are considered to be `delocalized`

FOUND  -   8 strongly local MO`s
       -   4 two center bond MO`s
       -   0 significantly delocalized MO`s

Rather strongly localized orbitals:
MO  26:   0I  -   1.002156
MO  25:   0I  -   1.002307
MO  24:   0I  -   0.997984
MO  23:   0I  -   0.999533
MO  22:   0I  -   1.000104
MO  21:   0I  -   1.000075
MO  20:   0I  -   1.000024
MO  19:   0I  -   1.002162
Bond-like localized orbitals:
MO  30:   4H  -   0.431110  and   1C  -   0.582967
MO  29:   3H  -   0.442632  and   1C  -   0.569992
MO  28:   2H  -   0.430309  and   1C  -   0.583845
MO  27:   1C  -   0.326240  and   0I  -   0.679113
Localized MO's were stored in: ch3i-cation_lw1x-p34_Compound_1.loc

------------------------------------------------------------------------------
                           ORCA ORBITAL LOCALIZATION
------------------------------------------------------------------------------

Input orbitals are from                  ... ch3i-cation_lw1x-p34_Compound_1.loc
Output orbitals are to                   ... ch3i-cation_lw1x-p34_Compound_1.loc
Max. number of iterations                ... 128
Localizations seeded randomly            ... off
Convergence tolerance                    ... 1.000e-06
Treshold for strong local MOs            ... 9.500e-01
Treshold for bond MOs                    ... 8.500e-01
Operator                                 ... 1
Orbital range for localization           ... 19 to 29
Localization criterion                   ... FOSTER-BOYS (AUGMENTED HESSIAN)
Doing the dipole integrals     ... o.k.
Initial value of the localization sum :    44.148522
ITERATION   0 : L=   51.8513725599 DL=  7.70e+00 (AVERGE_DL)=    0.3742349875 
ITERATION   1 : L=   54.0669873148 DL=  2.22e+00 (AVERGE_DL)=    0.2007085066 
ITERATION   2 : L=   54.2653993145 DL=  1.98e-01 (AVERGE_DL)=    0.0600623918 
ITERATION   3 : L=   54.2713414829 DL=  5.94e-03 (AVERGE_DL)=    0.0103942016 
ITERATION   4 : L=   54.2713785632 DL=  3.71e-05 (AVERGE_DL)=    0.0008210885 
ITERATION   5 : L=   54.2713791100 DL=  5.47e-07 (AVERGE_DL)=    0.0000997105 
LOCALIZATION SUM CONVERGED

------------------------------------------------------
AUGMENTED HESSIAN OPTIMIZATION OF FOSTER-BOYS ORBITALS
------------------------------------------------------

Spin operator:           1
Orbital window:          19 to 29
Number of iterations:    128
Gradient tolerance:      1.000e-06
Number of pairs:         55
Davidson threshold:      2000
Diagonalization method:  LAPACK
Iter:    0   L: 54.2713791100   Grad. norm: 3.434202e-04
Iter:    1   L: 54.2713791797   Grad. norm: 5.872727e-06
Iter:    2   L: 54.2713791812   Grad. norm: 4.428037e-07
   *** Likely close to a maximum now. ***
       Augmented Hessian eigenvalues:  7.37e-13 -1.44e-06 -2.60e-05 -2.67e-05 ... 
Iter:    3   L: 54.2713791812   Grad. norm: 1.248330e-10
LOCALIZATION HAS CONVERGED.

Eigenvalues of the Hessian:
  0 -1.440e-06
  1 -2.601e-05
  2 -2.669e-05
  3 -2.768e-03
  4 -7.449e-03
  5 -9.216e-03
  6 -9.874e-03
  7 -1.445e-02
  8 -1.527e-02
  9 -3.055e-02
    ...


------------------------------------------------------------------------------- 
                    LOCALIZED MOLECULAR ORBITAL COMPOSITIONS                   
------------------------------------------------------------------------------- 

The Mulliken populations for each LMO on each atom are computed
The LMO`s will be ordered according to atom index and type
  (A) Strongly localized MO`s have populations of >=0.950 on one atom
  (B) Two center bond orbitals have populations of >=0.850 on two atoms
  (C) Other MO`s are considered to be `delocalized`

FOUND  -   7 strongly local MO`s
       -   4 two center bond MO`s
       -   0 significantly delocalized MO`s

Rather strongly localized orbitals:
MO  25:   0I  -   1.000774
MO  24:   0I  -   0.997888
MO  23:   0I  -   0.999999
MO  22:   0I  -   1.000761
MO  21:   0I  -   0.999950
MO  20:   0I  -   0.999999
MO  19:   0I  -   1.000000
Bond-like localized orbitals:
MO  29:   4H  -   0.424486  and   1C  -   0.585182
MO  28:   3H  -   0.423888  and   1C  -   0.571639
MO  27:   2H  -   0.424648  and   1C  -   0.585975
MO  26:   1C  -   0.384368  and   0I  -   0.618822
Localized MO's were stored in: ch3i-cation_lw1x-p34_Compound_1.loc



Calculating differential overlap integrals ... ok
Threshold for domain construction in prescreening: TCutDOPre = 3.0e-02

--------------------------
ELECTRON PAIR PRESCREENING
--------------------------

Dipole-based pair screening          .... used

   TCutDOij = 1.000000e-05
   TCutPre  = 1.000000e-06
   .... Finished loop over pair list 0
   .... Finished loop over pair list 1
   .... Finished loop over pair list 2

                  ========================================
                     0 OF   66 AA PAIRS WERE SKIPPED 
                     0 OF   55 BB PAIRS WERE SKIPPED 
                     0 OF  132 AB PAIRS WERE SKIPPED 
                  ========================================

Total time spent in the prescreening                  ...     0.114 sec
Sum of pair energies estimated for screened out pairs:
alpha/alpha     ...       0.000000000000 Eh
beta/beta       ...       0.000000000000 Eh
alpha/beta      ...       0.000000000000 Eh

---------------------------
MAP CONSTRUCTION THRESHOLDS
---------------------------
    TCutMKN     ...     1.0e-03
    TCutDO      ...     5.0e-03
    TCutC(MO)   ...     1.0e-03
    TCutC(PAO)  ...     1.0e-03

--------------------------------
LOCAL RI TRANSFORMATION (IAVPAO)
--------------------------------

Orbital window:      19 to 30
Number of PAOs:     124
Basis functions:    124 (46 shells)
Aux. functions:     793 (199 shells)
Use SHARK:           on

Processing maps (0.0 sec)
Average map sizes:
   Aux shells -> MOs              12.0
   Aux shells -> PAOs            124.0
   MOs        -> AO shells        45.5
   PAOs       -> AO shells        46.0

Calculating integrals (0.3 sec, 9.012 MB)
Sorting integrals (0.1 sec, 9.003 MB)
Total time for the integral transformation: 0.4 sec
--------------------------------
LOCAL RI TRANSFORMATION (IAVPAO)
--------------------------------

Orbital window:      19 to 29
Number of PAOs:     124
Basis functions:    124 (46 shells)
Aux. functions:     793 (199 shells)
Use SHARK:           on

Processing maps (0.0 sec)
Average map sizes:
   Aux shells -> MOs              11.0
   Aux shells -> PAOs            124.0
   MOs        -> AO shells        43.3
   PAOs       -> AO shells        46.0

Calculating integrals (0.2 sec, 8.261 MB)
Sorting integrals (0.1 sec, 8.252 MB)
Total time for the integral transformation: 0.3 sec

----------------------------
Local MP2 Energy Calculation
----------------------------
Number of orbital pairs included:
    alpha/alpha:     66
    beta/beta:       55
    alpha/beta:     132
Truncation parameters:
    PAOOverlapThresh    =        1.000e-08
    TCutPNO             =        1.000e-10

Spin component scaling                      .... not used
MP2 energy scaling factor                   .... 1.000

Formation of AA pair semicanonical amplitudes.
 10% done.
 20% done.
 30% done.
 40% done.
 50% done.
 60% done.
 70% done.
 80% done.
 90% done.
100% done.

Formation of BB pair semicanonical amplitudes.
 10% done.
 20% done.
 30% done.
 40% done.
 50% done.
 60% done.
 70% done.
 80% done.
 90% done.
100% done.

Formation of AB pair semicanonical amplitudes.
 10% done.
 20% done.
 30% done.
 40% done.
 50% done.
 60% done.
 70% done.
 80% done.
 90% done.
100% done.

Finished the LMP2 guess in 0.7 sec.

Average number of PAOs per pair:
alpha/alpha:            124.0
beta/beta:              124.0
alpha/beta (alpha):     124.0
alpha/beta (beta):      124.0
Average number of nrPAOs per pair:
alpha/alpha:             93.0
beta/beta:               94.0
alpha/beta (alpha):      93.0
alpha/beta (beta):       94.0

Average number of PNOs per pair:
alpha/alpha:             48.9
beta/beta:               45.6
alpha/beta (alpha):      50.3
alpha/beta (beta):       50.3

Average number of AUX functions per pair:
alpha/alpha:            712.4
beta/beta:              683.5
alpha/beta:             694.8

Semicanonical MP2 energy contributions by spin pairs:
alpha/alpha:               -0.047123085944 Eh
beta/beta:                 -0.038427767345 Eh
alpha/beta:                -0.257500280630 Eh
Semicanonical MP2 energy contributions in PNO basis by spin pairs:
alpha/alpha:               -0.047122955712 Eh
beta/beta:                 -0.038427669704 Eh
alpha/beta:                -0.257499769455 Eh

Initial amplitudes guess done. Entering DLPNO-MP2 iteration loop:
   Max. no of iterations          ...  100
   Energy convergence tolerance   ...    1.0e-06 Eh
   Residual convergence tolerance ...    5.0e-06
   Fock matrix cutoff             ...    1.0e-05 Eh
   Max # vectors in DIIS          ...  7
   Start iteration of DIIS        ...  0
   Levelshift                     ...  2.000e-01 Eh
   Damping before turning on DIIS ...  5.000e-01
   Damping after turning on DIIS  ...  0.000e+00


AA residual iterations:

                           *** Turning on DIIS ***
Iter=   0:  ECORR(AA)= -0.049414807974  DE=   2.3e-03 RMAX=   7.2e-03
Iter=   1:  ECORR(AA)= -0.050617026253  DE=   1.2e-03 RMAX=   2.6e-03
Iter=   2:  ECORR(AA)= -0.050822878705  DE=   2.1e-04 RMAX=   6.6e-04
Iter=   3:  ECORR(AA)= -0.050833083533  DE=   1.0e-05 RMAX=   1.2e-04
Iter=   4:  ECORR(AA)= -0.050832819827  DE=   2.6e-07 RMAX=   1.8e-05
Iter=   5:  ECORR(AA)= -0.050832861904  DE=   4.2e-08 RMAX=   3.1e-06 => CONVERGED

BB residual iterations:

                           *** Turning on DIIS ***
Iter=   0:  ECORR(BB)= -0.039602785756  DE=   1.2e-03 RMAX=   4.1e-03
Iter=   1:  ECORR(BB)= -0.040102149167  DE=   5.0e-04 RMAX=   1.5e-03
Iter=   2:  ECORR(BB)= -0.040169177733  DE=   6.7e-05 RMAX=   3.5e-04
Iter=   3:  ECORR(BB)= -0.040172727562  DE=   3.5e-06 RMAX=   7.0e-05
Iter=   4:  ECORR(BB)= -0.040172434613  DE=   2.9e-07 RMAX=   9.9e-06
Iter=   5:  ECORR(BB)= -0.040172424435  DE=   1.0e-08 RMAX=   1.2e-06 => CONVERGED

AB residual iterations:

                           *** Turning on DIIS ***
Iter=   0:  ECORR(AB)= -0.262987007253  DE=   5.5e-03 RMAX=   1.3e-02
Iter=   1:  ECORR(AB)= -0.267732767205  DE=   4.7e-03 RMAX=   5.5e-03
Iter=   2:  ECORR(AB)= -0.268644525676  DE=   9.1e-04 RMAX=   1.3e-03
Iter=   3:  ECORR(AB)= -0.268720365275  DE=   7.6e-05 RMAX=   3.7e-04
Iter=   4:  ECORR(AB)= -0.268718789078  DE=   1.6e-06 RMAX=   5.5e-05
Iter=   5:  ECORR(AB)= -0.268718738737  DE=   5.0e-08 RMAX=   1.7e-05
Iter=   6:  ECORR(AB)= -0.268718916826  DE=   1.8e-07 RMAX=   5.0e-06
Iter=   7:  ECORR(AB)= -0.268718916928  DE=   1.0e-10 RMAX=   1.0e-06 => CONVERGED

Finished the DLPNO-MP2 iterations in 18.4 sec.

Alpha/Alpha pairs:
LMP2 correlation energy (all non-screened pairs)      ...     -0.050832861904 Eh
Semicanonical PNO correction to energy                ...     -0.000000130231 Eh
Sum of pair energies estimated for screened out pairs ...      0.000000000000 Eh
                                                         -----------------------
Total:                                                ...     -0.050832992135 Eh

Beta/Beta pairs:
LMP2 correlation energy (all non-screened pairs)      ...     -0.040172424435 Eh
Semicanonical PNO correction to energy                ...     -0.000000097641 Eh
Sum of pair energies estimated for screened out pairs ...      0.000000000000 Eh
                                                         -----------------------
Total:                                                ...     -0.040172522076 Eh

Alpha/Beta pairs:
LMP2 correlation energy (all non-screened pairs)      ...     -0.268718916928 Eh
Semicanonical PNO correction to energy                ...     -0.000000511175 Eh
Sum of pair energies estimated for screened out pairs ...      0.000000000000 Eh
                                                         -----------------------
Total:                                                ...     -0.268719428103 Eh

------------------------------------------------------
 DLPNO-MP2 CORRELATION ENERGY:      -0.359724942314 Eh
------------------------------------------------------

TIMINGS FOR DLPNO-MP2:
Localization                             ...        1.638 sec
Differential overlap integrals           ...        6.308 sec
Prescreening                             ...        1.476 sec
Map setup                                ...        0.008 sec
(ia|v) trafo                             ...        0.744 sec
Semicanonical amplitudes                 ...        0.272 sec
PNO construction                         ...        0.032 sec
DLPNO-MP2 iterations                     ...       18.437 sec
                                             ----------------
Total time                                         31.328 sec


---------------------------------------
MP2 TOTAL ENERGY:    -7150.539816033 Eh
---------------------------------------

Maximum memory used throughout the entire MP2-calculation: 1260.4 MB

-------------------------   --------------------
FINAL SINGLE POINT ENERGY     -7150.539816032785
-------------------------   --------------------


                            ***************************************
                            *     ORCA property calculations      *
                            ***************************************


  WARNING: The energy has been calculated at the MP2 level but the densities
           used in the property calculations are still SCF densities
           MP2 response densities have not been calculated 
           use %mp2 Density relaxed end
           or  %mp2 Density unrelaxed end

                                    ---------------------
                                    Active property flags
                                    ---------------------
   (+) Dipole Moment


------------------------------------------------------------------------------
                       ORCA ELECTRIC PROPERTIES CALCULATION
------------------------------------------------------------------------------

Dipole Moment Calculation                       ... on
Quadrupole Moment Calculation                   ... off
Polarizability Calculation                      ... off
GBWName                                         ... ch3i-cation_lw1x-p34_Compound_1.gbw
Electron density                                ... ch3i-cation_lw1x-p34_Compound_1.scfp
The origin for moment calculation is the CENTER OF MASS  = (-0.172312,  0.000094 -0.000842)

-------------
DIPOLE MOMENT
-------------
                                X             Y             Z
Electronic contribution:     -9.55342       0.00402      -0.03968
Nuclear contribution   :     10.68334      -0.00581       0.05220
                        -----------------------------------------
Total Dipole Moment    :      1.12992      -0.00179       0.01252
                        -----------------------------------------
Magnitude (a.u.)       :      1.12999
Magnitude (Debye)      :      2.87221



--------------------
Rotational spectrum 
--------------------
 
Rotational constants in cm-1:     5.092441     0.256459     0.256219 
Rotational constants in MHz : 152667.539863  7688.452840  7681.243085 

 Dipole components along the rotational axes: 
x,y,z [a.u.] :    -1.129907     0.001935    -0.013684 
x,y,z [Debye]:    -2.871996     0.004918    -0.034783 

 

Timings for individual modules:

Sum of individual times         ...       74.323 sec (=   1.239 min)
GTO integral calculation        ...       13.677 sec (=   0.228 min)  18.4 %
Relativistic integrals          ...        2.654 sec (=   0.044 min)   3.6 %
SCF iterations                  ...       24.251 sec (=   0.404 min)  32.6 %
MP2 module                      ...       33.741 sec (=   0.562 min)  45.4 %


################################################################################


                                COMPOUND JOB  2 
Basename: ch3i-cation_lw1x-p34_Compound_2
NOTE: please remember that MaxCore and PAL settings will be ignored.

################################################################################

================================================================================
                                       INPUT FILE
================================================================================
NAME = ch3i-cation_lw1x-p34_Compound_2.inp
|  1>     ! DefGrid3 RIJCOSX TightPNO DLPNO-MP2 MiniPrint NoPop
|  2>     %Basis
|  3>       Basis         "cc-pVTZ"
|  4>       AuxJ          "AutoAux"
|  5>       AuxC          "AutoAux"
|  6>       CABS          "AutoAux"
|  7>       NewECP     Ga "SK-MCDHF-RSC" End
|  8>       NewGTO     Ga "cc-pVTZ-PP"   End
|  9>       NewAuxjGTO Ga "AutoAux" End
| 10>       NewAuxcGTO Ga "AutoAux" End
| 11>       NewCabsGTO Ga "AutoAux" End
| 12>       NewECP     Ge "SK-MCDHF-RSC" End
| 13>       NewGTO     Ge "cc-pVTZ-PP"   End
| 14>       NewAuxjGTO Ge "AutoAux" End
| 15>       NewAuxcGTO Ge "AutoAux" End
| 16>       NewCabsGTO Ge "AutoAux" End
| 17>       NewECP     As "SK-MCDHF-RSC" End
| 18>       NewGTO     As "cc-pVTZ-PP"   End
| 19>       NewAuxjGTO As "AutoAux" End
| 20>       NewAuxcGTO As "AutoAux" End
| 21>       NewCabsGTO As "AutoAux" End
| 22>       NewECP     Se "SK-MCDHF-RSC" End
| 23>       NewGTO     Se "cc-pVTZ-PP"   End
| 24>       NewAuxjGTO Se "AutoAux" End
| 25>       NewAuxcGTO Se "AutoAux" End
| 26>       NewCabsGTO Se "AutoAux" End
| 27>       NewECP     Br "SK-MCDHF-RSC" End
| 28>       NewGTO     Br "cc-pVTZ-PP"   End
| 29>       NewAuxjGTO Br "AutoAux" End
| 30>       NewAuxcGTO Br "AutoAux" End
| 31>       NewCabsGTO Br "AutoAux" End
| 32>       NewECP     Kr "SK-MCDHF-RSC" End
| 33>       NewGTO     Kr "cc-pVTZ-PP"   End
| 34>       NewAuxjGTO Kr "AutoAux" End
| 35>       NewAuxcGTO Kr "AutoAux" End
| 36>       NewCabsGTO Kr "AutoAux" End
| 37>       NewECP     In "SK-MCDHF-RSC" End
| 38>       NewGTO     In "cc-pVTZ-PP"   End
| 39>       NewAuxjGTO In "AutoAux" End
| 40>       NewAuxcGTO In "AutoAux" End
| 41>       NewCabsGTO In "AutoAux" End
| 42>       NewECP     Sn "SK-MCDHF-RSC" End
| 43>       NewGTO     Sn "cc-pVTZ-PP"   End
| 44>       NewAuxjGTO Sn "AutoAux" End
| 45>       NewAuxcGTO Sn "AutoAux" End
| 46>       NewCabsGTO Sn "AutoAux" End
| 47>       NewECP     Sb "SK-MCDHF-RSC" End
| 48>       NewGTO     Sb "cc-pVTZ-PP"   End
| 49>       NewAuxjGTO Sb "AutoAux" End
| 50>       NewAuxcGTO Sb "AutoAux" End
| 51>       NewCabsGTO Sb "AutoAux" End
| 52>       NewECP     Te "SK-MCDHF-RSC" End
| 53>       NewGTO     Te "cc-pVTZ-PP"   End
| 54>       NewAuxjGTO Te "AutoAux" End
| 55>       NewAuxcGTO Te "AutoAux" End
| 56>       NewCabsGTO Te "AutoAux" End
| 57>       NewECP     I  "SK-MCDHF-RSC" End
| 58>       NewGTO     I  "cc-pVTZ-PP"   End
| 59>       NewAuxjGTO I  "AutoAux" End
| 60>       NewAuxcGTO I  "AutoAux" End
| 61>       NewCabsGTO I  "AutoAux" End
| 62>       NewECP     Xe "SK-MCDHF-RSC" End
| 63>       NewGTO     Xe "cc-pVTZ-PP"   End
| 64>       NewAuxjGTO Xe "AutoAux" End
| 65>       NewAuxcGTO Xe "AutoAux" End
| 66>       NewCabsGTO Xe "AutoAux" End
| 67>     End
| 68> 
| 69>                          ****END OF INPUT****
================================================================================
Warning! AutoAux has not been tested for CABS - use at your own risk!
================================================================================

cite the ECPs for I  [SK MCDHF RSC] as follows:
O: B. Metz and H. Stoll, private communication (KAP)
Tl: B. Metz, M. Schweizer, H. Stoll, M. Dolg, W. Liu, Theor. Chem. Acc. 104, 22 (2000)
Ga-As, In-Sb, Pb-Bi: B. Metz, H. Stoll, M. Dolg, J. Chem. Phys. 113, 2563 (2000)
Se-Kr, Te-Xe, Po-Rn: K.A. Peterson, D. Figgen, E. Goll, H. Stoll, and M. Dolg, J. Chem. Phys., in press (2003)
Cu-Zn, Ag-Cd, Au-Hg: D. Figgen, G. Rauhut, M. Dolg, and H. Stoll, Chem. Phys. 311, 227 (2005)
Y-Pd: K.A. Peterson, D. Figgen, M. Dolg, H. Stoll, J. Chem. Phys. 126, 124101 (2007)
I: K. A. Peterson, B. C. Shepler, D. Figgen, H. Stoll, J. Phys. Chem. A 110, 13877 (2006)
Hf-Pt: D. Figgen, K.A. Peterson, M. Dolg, H. Stoll, J. Chem. Phys. 130, 164108 (2009)
Ca, Sr, Ba, Ra: I.S. Lim, H. Stoll, P. Schwerdtfeger, J. Chem. Phys. 124, 034107 (2006)
U: M. Dolg, X. Cao, J. Phys. Chem. A 113, 12573 (2009)

ECP parameters for I  [SK MCDHF RSC] have been obtained from:
cc-pVDZ-PP  EMSL  Basis Set Exchange Library   4/7/16 5:27 AM
Ca, Sr, Ba, Ra: http://www.tc.uni-koeln.de/PP/index.en.html 3/16/17 1:54 PM


----- Orbital basis set information -----
Your calculation utilizes the basis: cc-pVTZ 
       H, B-Ne : Obtained from the ccRepo (grant-hill.group.shef.ac.uk/ccrepo) Feb. 2017
                 T. H. Dunning, Jr., J. Chem. Phys. 90, 1007 (1989)
            He : Obtained from the ccRepo (grant-hill.group.shef.ac.uk/ccrepo) Feb. 2017
                 D. E. Woon, T. H. Dunning, Jr., J. Chem. Phys. 100, 2975 (1994)
  Li-Be, Na-Mg : Obtained from the ccRepo (grant-hill.group.shef.ac.uk/ccrepo) Feb. 2017
                 B. P. Prascher, D. E. Woon, K. A. Peterson, T. H. Dunning, Jr., A. K. Wilson, Theor. Chem. Acc. 128, 69 (2011)
         Al-Ar : Obtained from the ccRepo (grant-hill.group.shef.ac.uk/ccrepo) Feb. 2017
                 D. E. Woon, T. H. Dunning, Jr., J. Chem. Phys. 98, 1358 (1993)
            Ca : Obtained from the Peterson Research Group Website (tyr0.chem.wsu.edu/~kipeters) Feb. 2017
                 J. Koput, K. A. Peterson, J. Phys. Chem. 106, 9595 (2002)
         Sc-Zn : Obtained from the ccRepo (grant-hill.group.shef.ac.uk/ccrepo) Feb. 2017
                 N. B. Balabanov, K. A. Peterson, J. Chem. Phys. 123, 064107 (2005)
                 N. B. Balabanov, K. A. Peterson, J. Chem. Phys. 125, 074110 (2006)
         Ga-Kr : Obtained from the ccRepo (grant-hill.group.shef.ac.uk/ccrepo) Feb. 2017
                 A. K. Wilson, D. E. Woon, K. A. Peterson, T. H. Dunning, Jr., J. Chem. Phys. 110, 7667 (1999)
             Y : Obtained from the ccRepo (grant-hill.group.shef.ac.uk/ccrepo) Feb. 2017
                 K. A. Peterson, D. Figgen, M. Dolg, H. Stoll, J. Chem. Phys. 126, 124101 (2007)
        Ag, Au : Obtained from the Peterson Research Group Website (tyr0.chem.wsu.edu/~kipeters) Feb. 2017
                 K. A. Peterson, C. Puzzarini, Theor. Chem. Acc. 114, 283 (2005)

The basis set includes element-specific modifications.

Your calculation utilizes the basis: cc-pVTZ-PP 
       Ca, Sr, Ba, Ra : Obtained from the Peterson Research Group Website (tyr0.chem.wsu.edu/~kipeters) Feb. 2017
                        H. Li, H. Feng, W. Sun, Y. Zhang, Q. Fan, K. A. Peterson, Y. Xie, H. F. Schaefer III, Mol. Phys. 111, 2292 (2013)
  Cu-Zn, Ag-Cd, Au-Hg : Obtained from the ccRepo (grant-hill.group.shef.ac.uk/ccrepo) Feb. 2017
                        K. A. Peterson, C. Puzzarini, Theor. Chem. Acc. 114, 283 (2005)
  Ga-Kr, In-Xe, Tl-Rn : Obtained from the ccRepo (grant-hill.group.shef.ac.uk/ccrepo) Feb. 2017
                        K. A. Peterson, J. Chem. Phys. 119, 11099 (2003)
                        K. A. Peterson, D. Figgen, E. Goll, H. Stoll, M. Dolg, J. Chem. Phys. 119, 11113 (2003)
                 Y-Pd : Obtained from the ccRepo (grant-hill.group.shef.ac.uk/ccrepo) Feb. 2017
                        K. A. Peterson, D. Figgen, M. Dolg, H. Stoll, J. Chem. Phys. 126, 124101 (2007)
                Hf-Pt : Obtained from the ccRepo (grant-hill.group.shef.ac.uk/ccrepo) Feb. 2017
                        D. Figgen, K. A. Peterson, M. Dolg, H. Stoll, J. Chem. Phys. 130, 164108 (2009)
                    U : Obtained from the ccRepo (grant-hill.group.shef.ac.uk/ccrepo) Feb. 2020
                        K. A. Peterson, J. Chem. Phys. 142, 074105 (2015)

----- AuxJ basis set information -----
Your calculation utilizes the AutoAux generation procedure.
  G. L. Stoychev, A. A. Auer, F. Neese, J. Chem. Theory Comput. 13, 554 (2017)

The basis set includes element-specific modifications.

----- AuxC basis set information -----
Your calculation utilizes the AutoAux generation procedure.
  G. L. Stoychev, A. A. Auer, F. Neese, J. Chem. Theory Comput. 13, 554 (2017)

The basis set includes element-specific modifications.

----- CABS information -----
Your calculation utilizes the AutoAux generation procedure.
  G. L. Stoychev, A. A. Auer, F. Neese, J. Chem. Theory Comput. 13, 554 (2017)

The basis set includes element-specific modifications.


                    <<< The CABS basis set will be decontracted >>>

================================================================================
                                        WARNINGS
                       Please study these warnings very carefully!
================================================================================


WARNING: your system is open-shell and RHF/RKS was chosen
  ===> : WILL SWITCH to UHF/UKS


WARNING: No MP2 level density has been requested!
         To caclulate MP2 level properties use
         %mp2 Density relaxed end
         or
         %mp2 Density unrelaxed end

WARNING: Post HF methods need fully converged wavefunctions
  ===> : Setting SCFConvForced true
         You can overwrite this default with %scf ConvForced false 


INFO   : the flag for use of the SHARK integral package has been found!


                       ****************************
                       * Single Point Calculation *
                       ****************************

---------------------------------
CARTESIAN COORDINATES (ANGSTROEM)
---------------------------------
  I     -0.322132    0.000035   -0.000353
  C      1.798900    0.000748   -0.006257
  H      2.112967    0.937631   -0.453678
  H      2.056884   -0.054901    1.053460
  H      2.109750   -0.889078   -0.543538

----------------------------
CARTESIAN COORDINATES (A.U.)
----------------------------
  NO LB      ZA    FRAG     MASS         X           Y           Z
   0 I    25.0000*   0   126.900   -0.608741    0.000066   -0.000667
   1 C     6.0000    0    12.011    3.399428    0.001414   -0.011824
   2 H     1.0000    0     1.008    3.992929    1.771866   -0.857327
   3 H     1.0000    0     1.008    3.886947   -0.103748    1.990751
   4 H     1.0000    0     1.008    3.986850   -1.680114   -1.027138
* core charge reduced due to ECP



           ************************************************************
           *        Program running with 30 parallel MPI-processes    *
           *              working on a common directory               *
           ************************************************************
------------------------------------------------------------------------------
                   ___                                                        
                  /   \      - P O W E R E D   B Y -                         
                 /     \                                                     
                 |  |  |   _    _      __       _____    __    __             
                 |  |  |  | |  | |    /  \     |  _  \  |  |  /  |          
                  \  \/   | |  | |   /    \    | | | |  |  | /  /          
                 / \  \   | |__| |  /  /\  \   | |_| |  |  |/  /          
                |  |  |   |  __  | /  /__\  \  |    /   |      \           
                |  |  |   | |  | | |   __   |  |    \   |  |\   \          
                \     /   | |  | | |  |  |  |  | |\  \  |  | \   \       
                 \___/    |_|  |_| |__|  |__|  |_| \__\ |__|  \__/        
                                                                              
                      - O R C A' S   B I G   F R I E N D -                    
                                      &                                       
                       - I N T E G R A L  F E E D E R -                       
                                                                              
 v1 FN, 2020, v2 2021                                                         
------------------------------------------------------------------------------


Reading SHARK input file ch3i-cation_lw1x-p34_Compound_2.SHARKINP.tmp ... ok
----------------------
SHARK INTEGRAL PACKAGE
----------------------

Number of atoms                             ...      5
Number of basis functions                   ...    111
Number of shells                            ...     41
Maximum angular momentum                    ...      3
Integral batch strategy                     ... SHARK/LIBINT Hybrid
RI-J (if used) integral strategy            ... SPLIT-RIJ (Revised 2003 algorithm where possible)
Printlevel                                  ...      1
Contraction scheme used                     ... SEGMENTED contraction
Coulomb Range Separation                    ... NOT USED
Exchange Range Separation                   ... NOT USED
Finite Nucleus Model                        ... NOT USED
Auxiliary Coulomb fitting basis             ... AVAILABLE
   # of basis functions in Aux-J            ...    575
   # of shells in Aux-J                     ...    155
   Maximum angular momentum in Aux-J        ...      5
Auxiliary J/K fitting basis                 ... NOT available
Auxiliary Correlation fitting basis         ... AVAILABLE
   # of basis functions in Aux-C            ...    575
   # of shells in Aux-C                     ...    155
   Maximum angular momentum in Aux-C        ...      5
Auxiliary 'external' fitting basis          ... NOT available
Integral threshold                          ...     1.000000e-10
Primitive cut-off                           ...     1.000000e-11
Primitive pair pre-selection threshold      ...     1.000000e-11

Calculating pre-screening integrals         ... done (  0.1 sec) Dimension = 41
Organizing shell pair data                  ... done (  0.0 sec)
Shell pair information
Total number of shell pairs                 ...       861
Shell pairs after pre-screening             ...       861
Total number of primitive shell pairs       ...      5384
Primitive shell pairs kept                  ...      4597
          la=0 lb=0:    171 shell pairs
          la=1 lb=0:    234 shell pairs
          la=1 lb=1:     91 shell pairs
          la=2 lb=0:    144 shell pairs
          la=2 lb=1:    104 shell pairs
          la=2 lb=2:     36 shell pairs
          la=3 lb=0:     36 shell pairs
          la=3 lb=1:     26 shell pairs
          la=3 lb=2:     16 shell pairs
          la=3 lb=3:      3 shell pairs

Calculating one electron integrals          ... done (  0.0 sec)
[...]
ITERATION  25 : L=   70.1197551493 DL=  6.52e-05 (AVERGE_DL)=    0.0007369117 
ITERATION  26 : L=   70.1198136693 DL=  5.85e-05 (AVERGE_DL)=    0.0006983317 
ITERATION  27 : L=   70.1198665698 DL=  5.29e-05 (AVERGE_DL)=    0.0006639559 
ITERATION  28 : L=   70.1199146951 DL=  4.81e-05 (AVERGE_DL)=    0.0006332804 
ITERATION  29 : L=   70.1199587401 DL=  4.40e-05 (AVERGE_DL)=    0.0006058398 
ITERATION  30 : L=   70.1199992843 DL=  4.05e-05 (AVERGE_DL)=    0.0005812638 
ITERATION  31 : L=   70.1200368086 DL=  3.75e-05 (AVERGE_DL)=    0.0005591981 
ITERATION  32 : L=   70.1200717186 DL=  3.49e-05 (AVERGE_DL)=    0.0005393670 
ITERATION  33 : L=   70.1201043568 DL=  3.26e-05 (AVERGE_DL)=    0.0005215223 
ITERATION  34 : L=   70.1201350180 DL=  3.07e-05 (AVERGE_DL)=    0.0005054796 
ITERATION  35 : L=   70.1201639552 DL=  2.89e-05 (AVERGE_DL)=    0.0004910634 
ITERATION  36 : L=   70.1201913910 DL=  2.74e-05 (AVERGE_DL)=    0.0004781544 
ITERATION  37 : L=   70.1202175208 DL=  2.61e-05 (AVERGE_DL)=    0.0004666356 
ITERATION  38 : L=   70.1202425239 DL=  2.50e-05 (AVERGE_DL)=    0.0004564636 
ITERATION  39 : L=   70.1202665620 DL=  2.40e-05 (AVERGE_DL)=    0.0004475683 
ITERATION  40 : L=   70.1202897872 DL=  2.32e-05 (AVERGE_DL)=    0.0004399354 
ITERATION  41 : L=   70.1203123423 DL=  2.26e-05 (AVERGE_DL)=    0.0004335431 
ITERATION  42 : L=   70.1203343692 DL=  2.20e-05 (AVERGE_DL)=    0.0004284362 
ITERATION  43 : L=   70.1203560036 DL=  2.16e-05 (AVERGE_DL)=    0.0004246012 
ITERATION  44 : L=   70.1203773860 DL=  2.14e-05 (AVERGE_DL)=    0.0004221216 
ITERATION  45 : L=   70.1203986584 DL=  2.13e-05 (AVERGE_DL)=    0.0004210346 
ITERATION  46 : L=   70.1204199705 DL=  2.13e-05 (AVERGE_DL)=    0.0004214275 
DETECTED SLOW CONVERGENCE - QUITTING

------------------------------------------------------
AUGMENTED HESSIAN OPTIMIZATION OF FOSTER-BOYS ORBITALS
------------------------------------------------------

Spin operator:           1
Orbital window:          0 to 15
Number of iterations:    128
Gradient tolerance:      1.000e-06
Number of pairs:         120
Davidson threshold:      2000
Diagonalization method:  LAPACK
Iter:    0   L: 70.1204199705   Grad. norm: 5.842777e-03
   *** Detected a saddle point. ***
       Augmented Hessian eigenvalues:  4.25e-02  2.78e-04 -2.55e-02 -1.03e-01 ... 
Iter:    1   L: 70.1233281160   Grad. norm: 6.555183e-02
Iter:    2   L: 70.1246534534   Grad. norm: 5.400819e-03
   *** Likely close to a maximum now. ***
       Augmented Hessian eigenvalues:  2.45e-05 -2.64e-02 -8.85e-02 -1.03e-01 ... 
Iter:    3   L: 70.1246658655   Grad. norm: 1.010842e-04
Iter:    4   L: 70.1246658724   Grad. norm: 7.533804e-08
LOCALIZATION HAS CONVERGED.

Eigenvalues of the Hessian:
  0 -2.640e-02
  1 -8.916e-02
  2 -9.990e-02
  3 -2.144e-01
  4 -2.657e-01
  5 -9.893e-01
  6 -1.114e+00
  7 -1.147e+00
  8 -1.157e+00
  9 -1.166e+00
    ...


------------------------------------------------------------------------------- 
                    LOCALIZED MOLECULAR ORBITAL COMPOSITIONS                   
------------------------------------------------------------------------------- 

The Mulliken populations for each LMO on each atom are computed
The LMO`s will be ordered according to atom index and type
  (A) Strongly localized MO`s have populations of >=0.950 on one atom
  (B) Two center bond orbitals have populations of >=0.850 on two atoms
  (C) Other MO`s are considered to be `delocalized`

FOUND  -  12 strongly local MO`s
       -   4 two center bond MO`s
       -   0 significantly delocalized MO`s

Rather strongly localized orbitals:
MO  11:   1C  -   1.000834
MO  10:   0I  -   1.002201
MO   9:   0I  -   0.999851
MO   8:   0I  -   0.999654
MO   7:   0I  -   0.999647
MO   6:   0I  -   1.000229
MO   5:   0I  -   0.998702
MO   4:   0I  -   1.000211
MO   3:   0I  -   1.000214
MO   2:   0I  -   0.999859
MO   1:   0I  -   0.998925
MO   0:   0I  -   1.002734
Bond-like localized orbitals:
MO  15:   4H  -   0.437813  and   1C  -   0.565108
MO  14:   3H  -   0.444333  and   1C  -   0.565467
MO  13:   2H  -   0.433483  and   1C  -   0.559711
MO  12:   1C  -   0.414786  and   0I  -   0.600230
Localized MO's were stored in: ch3i-cation_lw1x-p34_Compound_6.loc



Calculating differential overlap integrals ... ok
Threshold for domain construction in prescreening: TCutDOPre = 3.0e-02

--------------------------
ELECTRON PAIR PRESCREENING
--------------------------

Dipole-based pair screening          .... used

   TCutDOij = 1.000000e-05
   TCutPre  = 1.000000e-06
   .... Finished loop over pair list 0
   .... Finished loop over pair list 1
   .... Finished loop over pair list 2

                  ========================================
                     0 OF  136 AA PAIRS WERE SKIPPED 
                     0 OF  120 BB PAIRS WERE SKIPPED 
                     0 OF  272 AB PAIRS WERE SKIPPED 
                  ========================================

Total time spent in the prescreening                  ...     0.084 sec
Sum of pair energies estimated for screened out pairs:
alpha/alpha     ...       0.000000000000 Eh
beta/beta       ...       0.000000000000 Eh
alpha/beta      ...       0.000000000000 Eh

---------------------------
MAP CONSTRUCTION THRESHOLDS
---------------------------
    TCutMKN     ...     1.0e-03
    TCutDO      ...     5.0e-03
    TCutC(MO)   ...     1.0e-03
    TCutC(PAO)  ...     1.0e-03

--------------------------------
LOCAL RI TRANSFORMATION (IAVPAO)
--------------------------------

Orbital window:       0 to 16
Number of PAOs:     165
Basis functions:    165 (55 shells)
Aux. functions:     744 (180 shells)
Use SHARK:           on

Processing maps (0.0 sec)
Average map sizes:
   Aux shells -> MOs              17.0
   Aux shells -> PAOs            165.0
   MOs        -> AO shells        54.3
   PAOs       -> AO shells        55.0

Calculating integrals (0.4 sec, 15.930 MB)
Sorting integrals (0.1 sec, 15.922 MB)
Total time for the integral transformation: 0.6 sec
--------------------------------
LOCAL RI TRANSFORMATION (IAVPAO)
--------------------------------

Orbital window:       0 to 15
Number of PAOs:     165
Basis functions:    165 (55 shells)
Aux. functions:     744 (180 shells)
Use SHARK:           on

Processing maps (0.0 sec)
Average map sizes:
   Aux shells -> MOs              16.0
   Aux shells -> PAOs            165.0
   MOs        -> AO shells        53.1
   PAOs       -> AO shells        55.0

Calculating integrals (0.4 sec, 14.994 MB)
Sorting integrals (0.1 sec, 14.986 MB)
Total time for the integral transformation: 0.6 sec

----------------------------
Local MP2 Energy Calculation
----------------------------
Number of orbital pairs included:
    alpha/alpha:    136
    beta/beta:      120
    alpha/beta:     272
Truncation parameters:
    PAOOverlapThresh    =        1.000e-08
    TCutPNO             =        1.000e-10

Spin component scaling                      .... not used
MP2 energy scaling factor                   .... 1.000

Formation of AA pair semicanonical amplitudes.
 10% done.
 20% done.
 30% done.
 40% done.
 50% done.
 60% done.
 70% done.
 80% done.
 90% done.
100% done.

Formation of BB pair semicanonical amplitudes.
 10% done.
 20% done.
 30% done.
 40% done.
 50% done.
 60% done.
 70% done.
 80% done.
 90% done.
100% done.

Formation of AB pair semicanonical amplitudes.
 10% done.
 20% done.
 30% done.
 40% done.
 50% done.
 60% done.
 70% done.
 80% done.
 90% done.
100% done.

Finished the LMP2 guess in 1.4 sec.

Average number of PAOs per pair:
alpha/alpha:            165.0
beta/beta:              165.0
alpha/beta (alpha):     165.0
alpha/beta (beta):      165.0
Average number of nrPAOs per pair:
alpha/alpha:            148.0
beta/beta:              149.0
alpha/beta (alpha):     148.0
alpha/beta (beta):      149.0

Average number of PNOs per pair:
alpha/alpha:             64.2
beta/beta:               61.5
alpha/beta (alpha):      67.1
alpha/beta (beta):       67.1

Average number of AUX functions per pair:
alpha/alpha:            629.7
beta/beta:              618.4
alpha/beta:             618.5

Semicanonical MP2 energy contributions by spin pairs:
alpha/alpha:               -0.153369656518 Eh
beta/beta:                 -0.140568858675 Eh
alpha/beta:                -0.710226127316 Eh
Semicanonical MP2 energy contributions in PNO basis by spin pairs:
alpha/alpha:               -0.153368781187 Eh
beta/beta:                 -0.140568062274 Eh
alpha/beta:                -0.710222015262 Eh

Initial amplitudes guess done. Entering DLPNO-MP2 iteration loop:
   Max. no of iterations          ...  100
   Energy convergence tolerance   ...    1.0e-06 Eh
   Residual convergence tolerance ...    5.0e-06
   Fock matrix cutoff             ...    1.0e-05 Eh
   Max # vectors in DIIS          ...  7
   Start iteration of DIIS        ...  0
   Levelshift                     ...  2.000e-01 Eh
   Damping before turning on DIIS ...  5.000e-01
   Damping after turning on DIIS  ...  0.000e+00


AA residual iterations:

                           *** Turning on DIIS ***
Iter=   0:  ECORR(AA)= -0.171822175296  DE=   1.8e-02 RMAX=   2.0e-02
Iter=   1:  ECORR(AA)= -0.180413992309  DE=   8.6e-03 RMAX=   4.8e-03
Iter=   2:  ECORR(AA)= -0.181979295559  DE=   1.6e-03 RMAX=   3.2e-03
Iter=   3:  ECORR(AA)= -0.182287293488  DE=   3.1e-04 RMAX=   1.4e-03
Iter=   4:  ECORR(AA)= -0.182384965897  DE=   9.8e-05 RMAX=   5.6e-04
Iter=   5:  ECORR(AA)= -0.182400367488  DE=   1.5e-05 RMAX=   2.0e-04
Iter=   6:  ECORR(AA)= -0.182403052547  DE=   2.7e-06 RMAX=   6.1e-05
Iter=   7:  ECORR(AA)= -0.182403328622  DE=   2.8e-07 RMAX=   1.3e-05
Iter=   8:  ECORR(AA)= -0.182403412328  DE=   8.4e-08 RMAX=   5.5e-06
Iter=   9:  ECORR(AA)= -0.182403369392  DE=   4.3e-08 RMAX=   1.4e-06 => CONVERGED

BB residual iterations:

                           *** Turning on DIIS ***
Iter=   0:  ECORR(BB)= -0.157700519172  DE=   1.7e-02 RMAX=   1.7e-02
Iter=   1:  ECORR(BB)= -0.165173088677  DE=   7.5e-03 RMAX=   3.9e-03
Iter=   2:  ECORR(BB)= -0.166208389595  DE=   1.0e-03 RMAX=   2.7e-03
Iter=   3:  ECORR(BB)= -0.166335446832  DE=   1.3e-04 RMAX=   1.0e-03
Iter=   4:  ECORR(BB)= -0.166371449957  DE=   3.6e-05 RMAX=   4.8e-04
Iter=   5:  ECORR(BB)= -0.166377932060  DE=   6.5e-06 RMAX=   1.7e-04
Iter=   6:  ECORR(BB)= -0.166379549738  DE=   1.6e-06 RMAX=   6.0e-05
Iter=   7:  ECORR(BB)= -0.166379706790  DE=   1.6e-07 RMAX=   1.3e-05
Iter=   8:  ECORR(BB)= -0.166379730903  DE=   2.4e-08 RMAX=   4.3e-06 => CONVERGED

AB residual iterations:

                           *** Turning on DIIS ***
Iter=   0:  ECORR(AB)= -0.747720031286  DE=   3.7e-02 RMAX=   1.8e-02
Iter=   1:  ECORR(AB)= -0.775563312705  DE=   2.8e-02 RMAX=   6.7e-03
Iter=   2:  ECORR(AB)= -0.783624287130  DE=   8.1e-03 RMAX=   4.7e-03
Iter=   3:  ECORR(AB)= -0.785083120132  DE=   1.5e-03 RMAX=   2.3e-03
Iter=   4:  ECORR(AB)= -0.785599013495  DE=   5.2e-04 RMAX=   1.1e-03
Iter=   5:  ECORR(AB)= -0.785694316119  DE=   9.5e-05 RMAX=   4.8e-04
Iter=   6:  ECORR(AB)= -0.785710675747  DE=   1.6e-05 RMAX=   1.8e-04
Iter=   7:  ECORR(AB)= -0.785711366117  DE=   6.9e-07 RMAX=   7.0e-05
Iter=   8:  ECORR(AB)= -0.785713528387  DE=   2.2e-06 RMAX=   3.5e-05
Iter=   9:  ECORR(AB)= -0.785713331563  DE=   2.0e-07 RMAX=   1.6e-05
Iter=  10:  ECORR(AB)= -0.785713793162  DE=   4.6e-07 RMAX=   5.5e-06
Iter=  11:  ECORR(AB)= -0.785713824289  DE=   3.1e-08 RMAX=   2.9e-06 => CONVERGED

Finished the DLPNO-MP2 iterations in 52.8 sec.

Alpha/Alpha pairs:
LMP2 correlation energy (all non-screened pairs)      ...     -0.182403369392 Eh
Semicanonical PNO correction to energy                ...     -0.000000875331 Eh
Sum of pair energies estimated for screened out pairs ...      0.000000000000 Eh
                                                         -----------------------
Total:                                                ...     -0.182404244724 Eh

Beta/Beta pairs:
LMP2 correlation energy (all non-screened pairs)      ...     -0.166379730903 Eh
Semicanonical PNO correction to energy                ...     -0.000000796401 Eh
Sum of pair energies estimated for screened out pairs ...      0.000000000000 Eh
                                                         -----------------------
Total:                                                ...     -0.166380527304 Eh

Alpha/Beta pairs:
LMP2 correlation energy (all non-screened pairs)      ...     -0.785713824289 Eh
Semicanonical PNO correction to energy                ...     -0.000004112054 Eh
Sum of pair energies estimated for screened out pairs ...      0.000000000000 Eh
                                                         -----------------------
Total:                                                ...     -0.785717936343 Eh

------------------------------------------------------
 DLPNO-MP2 CORRELATION ENERGY:      -1.134502708371 Eh
------------------------------------------------------

TIMINGS FOR DLPNO-MP2:
Localization                             ...        0.671 sec
Differential overlap integrals           ...        5.271 sec
Prescreening                             ...        0.514 sec
Map setup                                ...        0.007 sec
(ia|v) trafo                             ...        1.286 sec
Semicanonical amplitudes                 ...        0.672 sec
PNO construction                         ...        0.126 sec
DLPNO-MP2 iterations                     ...       52.837 sec
                                             ----------------
Total time                                         64.093 sec


---------------------------------------
MP2 TOTAL ENERGY:     -335.104550839 Eh
---------------------------------------

Maximum memory used throughout the entire MP2-calculation: 141.3 MB

-------------------------   --------------------
FINAL SINGLE POINT ENERGY      -335.104550839155
-------------------------   --------------------


                            ***************************************
                            *     ORCA property calculations      *
                            ***************************************


  WARNING: The energy has been calculated at the MP2 level but the densities
           used in the property calculations are still SCF densities
           MP2 response densities have not been calculated 
           use %mp2 Density relaxed end
           or  %mp2 Density unrelaxed end

                                    ---------------------
                                    Active property flags
                                    ---------------------
   (+) Dipole Moment


------------------------------------------------------------------------------
                       ORCA ELECTRIC PROPERTIES CALCULATION
------------------------------------------------------------------------------

Dipole Moment Calculation                       ... on
Quadrupole Moment Calculation                   ... off
Polarizability Calculation                      ... off
GBWName                                         ... ch3i-cation_lw1x-p34_Compound_6.gbw
Electron density                                ... ch3i-cation_lw1x-p34_Compound_6.scfp
The origin for moment calculation is the CENTER OF MASS  = (-0.172312,  0.000094 -0.000842)

-------------
DIPOLE MOMENT
-------------
                                X             Y             Z
Electronic contribution:    -21.77488       0.00685      -0.03748
Nuclear contribution   :     22.90337      -0.00504       0.04730
                        -----------------------------------------
Total Dipole Moment    :      1.12848       0.00180       0.00982
                        -----------------------------------------
Magnitude (a.u.)       :      1.12853
Magnitude (Debye)      :      2.86849



--------------------
Rotational spectrum 
--------------------
 
Rotational constants in cm-1:     5.092441     0.256459     0.256219 
Rotational constants in MHz : 152667.539863  7688.452840  7681.243085 

 Dipole components along the rotational axes: 
x,y,z [a.u.] :    -1.128473    -0.001659    -0.010989 
x,y,z [Debye]:    -2.868350    -0.004216    -0.027933 

 

Timings for individual modules:

Sum of individual times         ...       74.398 sec (=   1.240 min)
GTO integral calculation        ...        2.922 sec (=   0.049 min)   3.9 %
SCF iterations                  ...        5.540 sec (=   0.092 min)   7.4 %
MP2 module                      ...       65.936 sec (=   1.099 min)  88.6 %
================================================================================

cite the ECPs for I  [Def2-ECP] as follows:
Ce-Yb(ecp-28): M. Dolg, H. Stoll, H.Preuss, J. Chem. Phys., 1989, 90, 1730-1734.
Y-Cd(ecp-28), Hf-Hg(ecp-46): D. Andrae,U. Haeussermann, M. Dolg, H. Stoll, H. Preuss, Theor. Chim. Acta, 1990, 77, 123-141.
In-Sb(ecp-28), Tl-Bi(ecp-46): B. Metz, H. Stoll, M. Dolg, J. Chem. Phys., 2000, 113, 2563-2569.
Te-Xe(ecp-28), Po-Rn(ecp-46): K. A. Peterson, D. Figgen, E. Goll, H. Stoll, M. Dolg, J. Chem. Phys., 2003, 119, 11113-11123.
Rb(ecp-28), Cs(ecp-46): T. Leininger, A. Nicklass, W. Kuechle, H. Stoll, M. Dolg, A. Bergner, Chem. Phys. Lett., 1996, 255, 274-280.
Sr(ecp-28), Ba(ecp-46): M. Kaupp, P. V. Schleyer, H. Stoll and H. Preuss, J. Chem. Phys., 1991, 94, 1360-1366.
La(ecp-46): M. Dolg, H. Stoll, A. Savin, H. Preuss, Theor. Chim. Acta, 1989, 75, 173-194.
Lu(ecp-28): X. Cao, M. Dolg, J. Chem. Phys., 2001, 115, 7348-7355.

ECP parameters for I  [Def2-ECP] have been obtained from:
TURBOMOLE (7.0.2)

----- Orbital basis set information -----
Your calculation utilizes the basis: def2-SVP
   F. Weigend and R. Ahlrichs, Phys. Chem. Chem. Phys. 7, 3297 (2005).



----------------------------------------------------------------------------------------------
                                        COMPOUND BLOCK                                        
                                     SUMMARY OF VARIABLES                                     
----------------------------------------------------------------------------------------------

Variable Name                                           Value             Evaluation String
-------------                                           -----             -----------------
HF_DZ                                    |            -333.96702863    |  
EC_DZ                                    |              -1.00002737    |  
CC_DZ                                    |              -0.98732341    |  EC_DZ-T_DZ
T_DZ                                     |              -0.01270396    |  
HF_TZ                                    |            -333.97089409    |  
EC_TZ                                    |              -1.08335583    |  
CC_TZ                                    |              -1.05427662    |  EC_TZ-T_TZ
T_TZ                                     |              -0.02907921    |  
HF_CBS                                   |            -333.97148032    |  HF_TZ-(HF_TZ-HF_DZ)*3^-5/(3^-5-2^-5)
CC_CBS                                   |              -1.06575035    |  CC_TZ-(CC_TZ-CC_DZ)*3^-4.7405/(3^-4.7405-2^-4.7405)
T_CBS                                    |              -0.04137628    |  T_TZ-(T_TZ-T_DZ)*3^-2.0879/(3^-2.0879-2^-2.0879)
MP_FC                                    |            -335.05885349    |  
MP_FU                                    |            -335.10455084    |  
MP_CV                                    |              -0.04569735    |  MP_FU-MP_FC
MP_PP                                    |            -334.32161840    |  
MP_DK                                    |           -7150.53981603    |  
MP_REL                                   |           -6816.21819763    |  MP_DK-MP_PP
LW1X                                     |           -7151.34250194    |  HF_CBS+CC_CBS+T_CBS+MP_CV+MP_REL
                             ****ORCA TERMINATED NORMALLY****
TOTAL RUN TIME: 0 days 1 hours 53 minutes 38 seconds 838 msec
