
                                 *****************
                                 * O   R   C   A *
                                 *****************

                                            #,                                       
                                            ###                                      
                                            ####                                     
                                            #####                                    
                                            ######                                   
                                           ########,                                 
                                     ,,################,,,,,                         
                               ,,#################################,,                 
                          ,,##########################################,,             
                       ,#########################################, ''#####,          
                    ,#############################################,,   '####,        
                  ,##################################################,,,,####,       
                ,###########''''           ''''###############################       
              ,#####''   ,,,,##########,,,,          '''####'''          '####       
            ,##' ,,,,###########################,,,                        '##       
           ' ,,###''''                  '''############,,,                           
         ,,##''                                '''############,,,,        ,,,,,,###''
      ,#''                                            '''#######################'''  
     '                                                          ''''####''''         
             ,#######,   #######,   ,#######,      ##                                
            ,#'     '#,  ##    ##  ,#'     '#,    #''#        ######   ,####,        
            ##       ##  ##   ,#'  ##            #'  '#       #        #'  '#        
            ##       ##  #######   ##           ,######,      #####,   #    #        
            '#,     ,#'  ##    ##  '#,     ,#' ,#      #,         ##   #,  ,#        
             '#######'   ##     ##  '#######'  #'      '#     #####' # '####'        



                  #######################################################
                  #                        -***-                        #
                  #          Department of theory and spectroscopy      #
                  #    Directorship and core code : Frank Neese         #
                  #        Max Planck Institute fuer Kohlenforschung    #
                  #                Kaiser Wilhelm Platz 1               #
                  #                 D-45470 Muelheim/Ruhr               #
                  #                      Germany                        #
                  #                                                     #
                  #                  All rights reserved                #
                  #                        -***-                        #
                  #######################################################


                         Program Version 5.0.1 -  RELEASE  -


 With contributions from (in alphabetic order):
   Daniel Aravena         : Magnetic Suceptibility
   Michael Atanasov       : Ab Initio Ligand Field Theory (pilot matlab implementation)
   Alexander A. Auer      : GIAO ZORA, VPT2 properties, NMR spectrum
   Ute Becker             : Parallelization
   Giovanni Bistoni       : ED, misc. LED, open-shell LED, HFLD
   Martin Brehm           : Molecular dynamics
   Dmytro Bykov           : SCF Hessian
   Vijay G. Chilkuri      : MRCI spin determinant printing, contributions to CSF-ICE
   Dipayan Datta          : RHF DLPNO-CCSD density
   Achintya Kumar Dutta   : EOM-CC, STEOM-CC
   Dmitry Ganyushin       : Spin-Orbit,Spin-Spin,Magnetic field MRCI
   Miquel Garcia          : C-PCM and meta-GGA Hessian, CC/C-PCM, Gaussian charge scheme
   Yang Guo               : DLPNO-NEVPT2, F12-NEVPT2, CIM, IAO-localization
   Andreas Hansen         : Spin unrestricted coupled pair/coupled cluster methods
   Benjamin Helmich-Paris : MC-RPA, TRAH-SCF, COSX integrals
   Lee Huntington         : MR-EOM, pCC
   Robert Izsak           : Overlap fitted RIJCOSX, COSX-SCS-MP3, EOM
   Marcus Kettner         : VPT2
   Christian Kollmar      : KDIIS, OOCD, Brueckner-CCSD(T), CCSD density, CASPT2, CASPT2-K
   Simone Kossmann        : Meta GGA functionals, TD-DFT gradient, OOMP2, MP2 Hessian
   Martin Krupicka        : Initial AUTO-CI
   Lucas Lang             : DCDCAS
   Marvin Lechner         : AUTO-CI (C++ implementation), FIC-MRCC
   Dagmar Lenk            : GEPOL surface, SMD
   Dimitrios Liakos       : Extrapolation schemes; Compound Job, initial MDCI parallelization
   Dimitrios Manganas     : Further ROCIS development; embedding schemes
   Dimitrios Pantazis     : SARC Basis sets
   Anastasios Papadopoulos: AUTO-CI, single reference methods and gradients
   Taras Petrenko         : DFT Hessian,TD-DFT gradient, ASA, ECA, R-Raman, ABS, FL, XAS/XES, NRVS
   Peter Pinski           : DLPNO-MP2, DLPNO-MP2 Gradient
   Christoph Reimann      : Effective Core Potentials
   Marius Retegan         : Local ZFS, SOC
   Christoph Riplinger    : Optimizer, TS searches, QM/MM, DLPNO-CCSD(T), (RO)-DLPNO pert. Triples
   Tobias Risthaus        : Range-separated hybrids, TD-DFT gradient, RPA, STAB
   Michael Roemelt        : Original ROCIS implementation
   Masaaki Saitow         : Open-shell DLPNO-CCSD energy and density
   Barbara Sandhoefer     : DKH picture change effects
   Avijit Sen             : IP-ROCIS
   Kantharuban Sivalingam : CASSCF convergence, NEVPT2, FIC-MRCI
   Bernardo de Souza      : ESD, SOC TD-DFT
   Georgi Stoychev        : AutoAux, RI-MP2 NMR, DLPNO-MP2 response
   Willem Van den Heuvel  : Paramagnetic NMR
   Boris Wezisla          : Elementary symmetry handling
   Frank Wennmohs         : Technical directorship


 We gratefully acknowledge several colleagues who have allowed us to
 interface, adapt or use parts of their codes:
   Stefan Grimme, W. Hujo, H. Kruse, P. Pracht,  : VdW corrections, initial TS optimization,
                  C. Bannwarth, S. Ehlert          DFT functionals, gCP, sTDA/sTD-DF
   Ed Valeev, F. Pavosevic, A. Kumar             : LibInt (2-el integral package), F12 methods
   Garnet Chan, S. Sharma, J. Yang, R. Olivares  : DMRG
   Ulf Ekstrom                                   : XCFun DFT Library
   Mihaly Kallay                                 : mrcc  (arbitrary order and MRCC methods)
   Jiri Pittner, Ondrej Demel                    : Mk-CCSD
   Frank Weinhold                                : gennbo (NPA and NBO analysis)
   Christopher J. Cramer and Donald G. Truhlar   : smd solvation model
   Lars Goerigk                                  : TD-DFT with DH, B97 family of functionals
   V. Asgeirsson, H. Jonsson                     : NEB implementation
   FAccTs GmbH                                   : IRC, NEB, NEB-TS, DLPNO-Multilevel, CI-OPT
                                                   MM, QMMM, 2- and 3-layer-ONIOM, Crystal-QMMM,
                                                   LR-CPCM, SF, NACMEs, symmetry and pop. for TD-DFT,
                                                   nearIR, NL-DFT gradient (VV10), updates on ESD,
                                                   ML-optimized integration grids
   S Lehtola, MJT Oliveira, MAL Marques          : LibXC Library
   Liviu Ungur et al                             : ANISO software


 Your calculation uses the libint2 library for the computation of 2-el integrals
 For citations please refer to: http://libint.valeyev.net

 Your ORCA version has been built with support for libXC version: 5.1.0
 For citations please refer to: https://tddft.org/programs/libxc/

 This ORCA versions uses:
   CBLAS   interface :  Fast vector & matrix operations
   LAPACKE interface :  Fast linear algebra routines
   SCALAPACK package :  Parallel linear algebra routines
   Shared memory     :  Shared parallel matrices
   BLAS/LAPACK       :  OpenBLAS 0.3.15  USE64BITINT DYNAMIC_ARCH NO_AFFINITY SkylakeX SINGLE_THREADED
        Core in use  :  SkylakeX
   Copyright (c) 2011-2014, The OpenBLAS Project




################################################################################


                                COMPOUND JOB MainJOB 
Basename: c2h4_lw1x_Compound_0

################################################################################

================================================================================
                                       INPUT FILE
================================================================================
NAME = c2h4_lw1x_Compound_0.inp
|  1> %Maxcore 1000
|  2>  %Pal nprocs 5 End
|  3>  
|  4>  * xyz 0 1
|  5>  C        0.000000    0.000000    0.661989 
|  6>  C        0.000000    0.000000   -0.661989 
|  7>  H        0.000000    0.920483    1.231826 
|  8>  H        0.000000   -0.920483    1.231826 
|  9>  H        0.000000    0.920483   -1.231826 
| 10>  H        0.000000   -0.920483   -1.231826 
| 11>  *
| 12>  
| 13> 
| 14>                          ****END OF INPUT****
================================================================================
================================================================================

----- Orbital basis set information -----
Your calculation utilizes the basis: def2-SVP
   F. Weigend and R. Ahlrichs, Phys. Chem. Chem. Phys. 7, 3297 (2005).



################################################################################


                                COMPOUND JOB  1 
Basename: c2h4_lw1x_Compound_1
NOTE: please remember that MaxCore and PAL settings will be ignored.

################################################################################

================================================================================
                                       INPUT FILE
================================================================================
NAME = c2h4_lw1x_Compound_1.inp
|  1>     ! DefGrid3 RIJCOSX TightPNO DLPNO-CCSD(T1)-F12 MiniPrint NoPop
|  2>     %Basis
|  3>       Basis "maug-cc-pV(D+d)Z"
|  4>       AuxJ  "AutoAux"
|  5>       AuxC  "AutoAux"
|  6>       CABS  "AutoAux"
|  7>     End
|  8> 
|  9>                          ****END OF INPUT****
================================================================================
Warning! AutoAux has not been tested for CABS - use at your own risk!
================================================================================

----- Orbital basis set information -----
Your calculation utilizes the basis: jun-cc-pV(D+d)Z 
  E. Papajak, D. G. Truhlar, J. Chem. Theory Comput. 7, 10-18 (2011).

----- AuxJ basis set information -----
Your calculation utilizes the AutoAux generation procedure.
  G. L. Stoychev, A. A. Auer, F. Neese, J. Chem. Theory Comput. 13, 554 (2017)

----- AuxC basis set information -----
Your calculation utilizes the AutoAux generation procedure.
  G. L. Stoychev, A. A. Auer, F. Neese, J. Chem. Theory Comput. 13, 554 (2017)

----- CABS information -----
Your calculation utilizes the AutoAux generation procedure.
  G. L. Stoychev, A. A. Auer, F. Neese, J. Chem. Theory Comput. 13, 554 (2017)


                    <<< The CABS basis set will be decontracted >>>

================================================================================
                                        WARNINGS
                       Please study these warnings very carefully!
================================================================================


WARNING: Post HF methods need fully converged wavefunctions
  ===> : Setting SCFConvForced true
         You can overwrite this default with %scf ConvForced false 


WARNING: MDCI localization with Augmented Hessian Foster-Boys
  ===> : Switching off randomization!

INFO   : the flag for use of the SHARK integral package has been found!


                       ****************************
                       * Single Point Calculation *
                       ****************************

---------------------------------
CARTESIAN COORDINATES (ANGSTROEM)
---------------------------------
  C      0.000000    0.000000    0.661989
  C      0.000000    0.000000   -0.661989
  H      0.000000    0.920483    1.231826
  H      0.000000   -0.920483    1.231826
  H      0.000000    0.920483   -1.231826
  H      0.000000   -0.920483   -1.231826

----------------------------
CARTESIAN COORDINATES (A.U.)
----------------------------
  NO LB      ZA    FRAG     MASS         X           Y           Z
   0 C     6.0000    0    12.011    0.000000    0.000000    1.250978
   1 C     6.0000    0    12.011    0.000000    0.000000   -1.250978
   2 H     1.0000    0     1.008    0.000000    1.739461    2.327814
   3 H     1.0000    0     1.008    0.000000   -1.739461    2.327814
   4 H     1.0000    0     1.008    0.000000    1.739461   -2.327814
   5 H     1.0000    0     1.008    0.000000   -1.739461   -2.327814



           ************************************************************
           *        Program running with 5 parallel MPI-processes     *
           *              working on a common directory               *
           ************************************************************
------------------------------------------------------------------------------
                   ___                                                        
                  /   \      - P O W E R E D   B Y -                         
                 /     \                                                     
                 |  |  |   _    _      __       _____    __    __             
                 |  |  |  | |  | |    /  \     |  _  \  |  |  /  |          
                  \  \/   | |  | |   /    \    | | | |  |  | /  /          
                 / \  \   | |__| |  /  /\  \   | |_| |  |  |/  /          
                |  |  |   |  __  | /  /__\  \  |    /   |      \           
                |  |  |   | |  | | |   __   |  |    \   |  |\   \          
                \     /   | |  | | |  |  |  |  | |\  \  |  | \   \       
                 \___/    |_|  |_| |__|  |__|  |_| \__\ |__|  \__/        
                                                                              
                      - O R C A' S   B I G   F R I E N D -                    
                                      &                                       
                       - I N T E G R A L  F E E D E R -                       
                                                                              
 v1 FN, 2020, v2 2021                                                         
------------------------------------------------------------------------------


Reading SHARK input file c2h4_lw1x_Compound_1.SHARKINP.tmp ... ok
----------------------
SHARK INTEGRAL PACKAGE
----------------------

Number of atoms                             ...      6
Number of basis functions                   ...     56
Number of shells                            ...     28
Maximum angular momentum                    ...      2
Integral batch strategy                     ... SHARK/LIBINT Hybrid
RI-J (if used) integral strategy            ... SPLIT-RIJ (Revised 2003 algorithm where possible)
Printlevel                                  ...      1
Contraction scheme used                     ... SEGMENTED contraction
Coulomb Range Separation                    ... NOT USED
Exchange Range Separation                   ... NOT USED
Finite Nucleus Model                        ... NOT USED
Auxiliary Coulomb fitting basis             ... AVAILABLE
   # of basis functions in Aux-J            ...    352
   # of shells in Aux-J                     ...    136
   Maximum angular momentum in Aux-J        ...      3
Auxiliary J/K fitting basis                 ... NOT available
Auxiliary Correlation fitting basis         ... AVAILABLE
   # of basis functions in Aux-C            ...    352
   # of shells in Aux-C                     ...    136
   Maximum angular momentum in Aux-C        ...      3
Auxiliary 'external' fitting basis          ... NOT available
Integral threshold                          ...     1.000000e-10
Primitive cut-off                           ...     1.000000e-11
Primitive pair pre-selection threshold      ...     1.000000e-11

Calculating pre-screening integrals         ... done (  0.2 sec) Dimension = 28
Organizing shell pair data                  ... done (  0.0 sec)
Shell pair information
Total number of shell pairs                 ...       406
Shell pairs after pre-screening             ...       406
Total number of primitive shell pairs       ...      2476
Primitive shell pairs kept                  ...      2155
          la=0 lb=0:    136 shell pairs
          la=1 lb=0:    160 shell pairs
          la=1 lb=1:     55 shell pairs
          la=2 lb=0:     32 shell pairs
          la=2 lb=1:     20 shell pairs
          la=2 lb=2:      3 shell pairs

Calculating one electron integrals          ... done (  0.0 sec)
Calculating RI/J V-Matrix + Cholesky decomp.... done (  0.2 sec)
Calculating RI/C V-Matrix + Cholesky decomp.... done (  0.0 sec)
Calculating Nuclear repulsion               ... done (  0.0 sec) ENN=     33.500164572333 Eh

SHARK setup successfully completed in   0.5 seconds

Maximum memory used throughout the entire GTOINT-calculation: 12.1 MB


           ************************************************************
           *        Program running with 5 parallel MPI-processes     *
           *              working on a common directory               *
           ************************************************************

Diagonalization of the overlap matrix:
Smallest eigenvalue                        ... 5.934e-04
Time for diagonalization                   ...    0.106 sec
Threshold for overlap eigenvalues          ... 1.000e-08
Number of eigenvalues below threshold      ... 0
Time for construction of square roots      ...    0.008 sec
Total time needed                          ...    0.116 sec

Time for model grid setup =    0.103 sec

Loading Hartree-Fock densities                     ... done
Calculating cut-offs                               ... done
Initializing the effective Hamiltonian             ... done
Setting up the integral package (SHARK)            ... done
Starting the Coulomb interaction                   ... done (   0.1 sec)
Reading the grid                                   ... done
Mapping shells                                     ... done
Starting the XC term evaluation                    ... done (   0.0 sec)
Transforming the Hamiltonian                       ... done (   0.0 sec)
Diagonalizing the Hamiltonian                      ... done (   0.0 sec)
Back transforming the eigenvectors                 ... done (   0.0 sec)
Now organizing SCF variables                       ... done
--------------------
COSX GRID GENERATION
--------------------

GRIDX 1
-------
General Integration Accuracy     IntAcc      ... 4.020
Radial Grid Type                 RadialGrid  ... OptM3 with GC (2021)
Angular Grid (max. ang.)         AngularGrid ... 2 (Lebedev-110)
Angular grid pruning method      GridPruning ... 4 (adaptive)
Weight generation scheme         WeightScheme... Becke
Basis function cutoff            BFCut       ... 1.0000e-10
Integration weight cutoff        WCut        ... 1.0000e-14
Angular grids for H and He will be reduced by one unit
Partially contracted basis set               ... on
Rotationally invariant grid construction     ... off

Total number of grid points                  ...     7652
Total number of batches                      ...      122
Average number of points per batch           ...       62
Average number of grid points per atom       ...     1275
UseSFitting                                  ... on

GRIDX 2
-------
General Integration Accuracy     IntAcc      ... 4.338
Radial Grid Type                 RadialGrid  ... OptM3 with GC (2021)
Angular Grid (max. ang.)         AngularGrid ... 3 (Lebedev-194)
Angular grid pruning method      GridPruning ... 4 (adaptive)
Weight generation scheme         WeightScheme... Becke
Basis function cutoff            BFCut       ... 1.0000e-10
Integration weight cutoff        WCut        ... 1.0000e-14
Angular grids for H and He will be reduced by one unit
Partially contracted basis set               ... on
Rotationally invariant grid construction     ... off

Total number of grid points                  ...    16644
Total number of batches                      ...      263
Average number of points per batch           ...       63
Average number of grid points per atom       ...     2774
UseSFitting                                  ... on

GRIDX 3
-------
General Integration Accuracy     IntAcc      ... 4.871
Radial Grid Type                 RadialGrid  ... OptM3 with GC (2021)
Angular Grid (max. ang.)         AngularGrid ... 4 (Lebedev-302)
Angular grid pruning method      GridPruning ... 4 (adaptive)
Weight generation scheme         WeightScheme... Becke
Basis function cutoff            BFCut       ... 1.0000e-10
Integration weight cutoff        WCut        ... 1.0000e-14
Angular grids for H and He will be reduced by one unit
Partially contracted basis set               ... on
Rotationally invariant grid construction     ... off

Total number of grid points                  ...    32842
Total number of batches                      ...      517
Average number of points per batch           ...       63
Average number of grid points per atom       ...     5474
UseSFitting                                  ... on

Time for X-Grid setup             =    0.648 sec

 re-compute Schwartz prescreening matrix in partically contracted basis (1) ...done (   0.155 sec)
--------------
SCF ITERATIONS
--------------
ITER       Energy         Delta-E        Max-DP      RMS-DP      [F,P]     Damp
               ***  Starting incremental Fock matrix formation  ***
  0    -77.9279651488   0.000000000000 0.05080026  0.00284753  0.1875467 0.7000
  1    -77.9679368704  -0.039971721551 0.03887470  0.00221877  0.1256242 0.7000
                               ***Turning on DIIS***
  2    -77.9926189965  -0.024682126124 0.08354944  0.00492013  0.0770047 0.0000
  3    -77.8508014466   0.141817549882 0.01541145  0.00096384  0.0255630 0.0000
  4    -78.0191315508  -0.168330104224 0.00288783  0.00026259  0.0046992 0.0000
                      *** Initiating the SOSCF procedure ***
                           *** Shutting down DIIS ***
                      *** Re-Reading the Fockian *** 
                      *** Removing any level shift *** 
ITER      Energy       Delta-E        Grad      Rot      Max-DP    RMS-DP
  5    -78.03825754  -0.0191259851  0.001337  0.001337  0.000814  0.000097
               *** Restarting incremental Fock matrix formation ***
  6    -78.04198124  -0.0037237008  0.000298  0.000354  0.000479  0.000043
                 **** Energy Check signals convergence ****
              ***Rediagonalizing the Fockian in SOSCF/NRSCF***

               *****************************************************
               *                     SUCCESS                       *
               *           SCF CONVERGED AFTER   7 CYCLES          *
               *****************************************************

Old exchange energy                            =    -11.747352286 Eh
New exchange energy                            =    -11.747369464 Eh
Exchange energy change after final integration =     -0.000017178 Eh
Total energy after final integration           =    -78.041999357 Eh
Final COS-X integration done in                =     0.284 sec
Total Energy       :          -78.04199936 Eh           -2123.63077 eV
  Last Energy change         ...   -9.4198e-07  Tolerance :   1.0000e-06
  Last MAX-Density change    ...    1.3323e-15  Tolerance :   1.0000e-05
             **** THE GBW FILE WAS UPDATED (c2h4_lw1x_Compound_1.gbw) ****
             **** DENSITY c2h4_lw1x_Compound_1.scfp WAS UPDATED ****
             **** ENERGY FILE WAS UPDATED (c2h4_lw1x_Compound_1.en.tmp) ****
             **** THE GBW FILE WAS UPDATED (c2h4_lw1x_Compound_1.gbw) ****
             **** DENSITY c2h4_lw1x_Compound_1.scfp WAS UPDATED ****
----------------
ORBITAL ENERGIES
----------------

  NO   OCC          E(Eh)            E(eV) 
   0   2.0000     -11.239252      -305.8356 
   1   2.0000     -11.237514      -305.7883 
   2   2.0000      -1.038932       -28.2708 
   3   2.0000      -0.793376       -21.5889 
   4   2.0000      -0.643548       -17.5118 
   5   2.0000      -0.590235       -16.0611 
   6   2.0000      -0.504882       -13.7385 
   7   2.0000      -0.378667       -10.3041 
   8   0.0000       0.070397         1.9156 
   9   0.0000       0.092372         2.5136 
  10   0.0000       0.102942         2.8012 
  11   0.0000       0.102977         2.8021 
  12   0.0000       0.122482         3.3329 
  13   0.0000       0.126014         3.4290 
  14   0.0000       0.150592         4.0978 
  15   0.0000       0.223640         6.0855 
  16   0.0000       0.250181         6.8078 
  17   0.0000       0.282124         7.6770 
  18   0.0000       0.306922         8.3518 
  19   0.0000       0.357451         9.7267 
  20   0.0000       0.416590        11.3360 
  21   0.0000       0.490668        13.3518 
  22   0.0000       0.667550        18.1650 
  23   0.0000       0.698961        19.0197 
  24   0.0000       0.808122        21.9901 
  25   0.0000       0.856980        23.3196 
  26   0.0000       0.879734        23.9388 
  27   0.0000       0.887265        24.1437 
  28   0.0000       0.949305        25.8319 
  29   0.0000       0.983610        26.7654 
  30   0.0000       1.011065        27.5125 
  31   0.0000       1.020697        27.7746 
  32   0.0000       1.126792        30.6616 
  33   0.0000       1.244763        33.8717 
  34   0.0000       1.264109        34.3982 
  35   0.0000       1.289116        35.0786 
  36   0.0000       1.291837        35.1527 
  37   0.0000       1.604556        43.6622 
  38   0.0000       1.741316        47.3836 
  39   0.0000       1.761939        47.9448 
  40   0.0000       1.832317        49.8599 
  41   0.0000       1.894727        51.5581 
  42   0.0000       1.902398        51.7669 
  43   0.0000       1.951485        53.1026 
  44   0.0000       1.965354        53.4800 
  45   0.0000       1.985752        54.0351 
  46   0.0000       2.230726        60.7011 
  47   0.0000       2.265947        61.6596 
  48   0.0000       2.367970        64.4357 
  49   0.0000       2.489985        67.7559 
  50   0.0000       2.530176        68.8496 
  51   0.0000       2.679738        72.9194 
  52   0.0000       2.727209        74.2111 
  53   0.0000       2.830366        77.0182 
  54   0.0000       3.143668        85.5436 
  55   0.0000       3.410931        92.8161 
Total SCF time: 0 days 0 hours 0 min 4 sec 

Maximum memory used throughout the entire SCF-calculation: 44.4 MB


           ************************************************************
           *        Program running with 5 parallel MPI-processes     *
           *              working on a common directory               *
           ************************************************************


------------------------------------------------------------------------------- 
                              ORCA-MATRIX DRIVEN CI                            
------------------------------------------------------------------------------- 


Wavefunction type
-----------------
Correlation treatment                      ...      CCSD     
Single excitations                         ... ON
Orbital optimization                       ... OFF
Calculation of Z vector                    ... OFF
Calculation of Brueckner orbitals          ... OFF
Perturbative triple excitations            ... ON
Calculation of F12 correction              ... ON
   Using RI for F12 correction             ... ON
   GSO occupation number cut-off           ... 0.000e+00
Frozen core treatment                      ... chemical core (4 el)
Reference Wavefunction                     ... RHF
  Internal Orbitals:     2 ...    7 (  6 MO's/ 12 electrons)
  Virtual  Orbitals:     8 ...   55 ( 48 MO's              )
Number of AO's                             ...     56
Number of electrons                        ...     16
Number of correlated electrons             ...     12

Algorithmic settings
--------------------
Integral transformation                    ... All integrals via the RI transformation
K(C) Formation                             ... RI-DLPNO
   PNO-Integral Storage                    ... ON DISK
   PNO occupation number cut-off           ... 1.000e-07
   Singles PNO occupation number cut-off   ... 3.000e-09
   PNO Mulliken prescreening cut-off       ... 1.000e-03
   Domain cut-off (Mulliken population)    ... 1.000e-03
   PNO Normalization                       ...    1
Maximum number of iterations               ...        50
Convergence tolerance (max. residuum)      ... 2.500e-05
Level shift for amplitude update           ... 2.000e-01
Maximum number of DIIS vectors             ...         7
DIIS turned on at iteration                ...         0
Damping before turning on DIIS             ...     0.500
Damping after turning on DIIS              ...     0.000
Pair specific amplitude update             ... OFF
Natural orbital iterations                 ... OFF
Perturbative natural orbital generation    ... OFF
Printlevel                                 ... 2

Singles Fock matrix elements calculated using PNOs.

Memory handling:
----------------
Maximum memory for working arrays          ...   1000 MB
Data storage in matrix containers          ... UNCOMPRESSED
Data type for integral storage             ... DOUBLE
In-Core Storage of quantities:
   Amplitudes+Sigma Vector      ... NO
   J+K operators                ... NO
   DIIS vectors                 ... NO
   3-external integrals         ... NO
   4-external integrals         ... NO

Localization treatment:
-----------------------
Localization option                        ...    6
Localization threshhold                    ... -1.0e+00
Using relative localization threshhold     ... 1.0e-08
Neglect threshold for strong pairs         ... 1.000e-05 Eh
Prescreening threshold for very weak pairs ... 1.000e-07 Eh

Initializing the integral package          ... done
Localizing the valence orbitals
------------------------------------------------------------------------------
                           ORCA ORBITAL LOCALIZATION
------------------------------------------------------------------------------

Input orbitals are from                  ... c2h4_lw1x_Compound_1.gbw
Output orbitals are to                   ... c2h4_lw1x_Compound_1.loc
Max. number of iterations                ... 128
Localizations seeded randomly            ... off
Convergence tolerance                    ... 1.000e-06
Using relative localization threshhold   ... 1.000e-08
Treshold for strong local MOs            ... 9.500e-01
Treshold for bond MOs                    ... 8.500e-01
Operator                                 ... 0
Orbital range for localization           ... 2 to 7
Localization criterion                   ... FOSTER-BOYS (AUGMENTED HESSIAN)
Doing the dipole integrals     ... o.k.
Initial value of the localization sum :    15.848484
ITERATION   0 : L=   21.3965923987 DL=  5.55e+00 (AVERGE_DL)=    0.6081725996 
ITERATION   1 : L=   22.0759852235 DL=  6.79e-01 (AVERGE_DL)=    0.2128211808 
ITERATION   2 : L=   22.0766599727 DL=  6.75e-04 (AVERGE_DL)=    0.0067069575 
ITERATION   3 : L=   22.0766617890 DL=  1.82e-06 (AVERGE_DL)=    0.0003479689 
ITERATION   4 : L=   22.0766617935 DL=  4.55e-09 (AVERGE_DL)=    0.0000174173 
LOCALIZATION SUM CONVERGED

------------------------------------------------------
AUGMENTED HESSIAN OPTIMIZATION OF FOSTER-BOYS ORBITALS
------------------------------------------------------

Spin operator:           0
Orbital window:          2 to 7
Number of iterations:    128
Gradient tolerance:      1.000e-06
Number of pairs:         15
Davidson threshold:      2000
Diagonalization method:  LAPACK
Iter:    0   L: 22.0766617935   Grad. norm: 4.078990e-05
   *** Likely close to a maximum now. ***
       Augmented Hessian eigenvalues:  8.53e-11 -5.35e+00 -1.81e+01 -1.88e+01 ... 
Iter:    1   L: 22.0766617935   Grad. norm: 6.116863e-12
LOCALIZATION HAS CONVERGED.

Eigenvalues of the Hessian:
  0 -5.347e+00
  1 -1.814e+01
  2 -1.878e+01
  3 -1.979e+01
  4 -2.079e+01
  5 -2.245e+01
  6 -2.253e+01
  7 -2.349e+01
  8 -2.386e+01
  9 -2.391e+01
    ...


------------------------------------------------------------------------------- 
                    LOCALIZED MOLECULAR ORBITAL COMPOSITIONS                   
------------------------------------------------------------------------------- 

The Mulliken populations for each LMO on each atom are computed
The LMO`s will be ordered according to atom index and type
  (A) Strongly localized MO`s have populations of >=0.950 on one atom
  (B) Two center bond orbitals have populations of >=0.850 on two atoms
  (C) Other MO`s are considered to be `delocalized`

FOUND  -   0 strongly local MO`s
       -   6 two center bond MO`s
       -   0 significantly delocalized MO`s

Bond-like localized orbitals:
MO   7:   5H  -   0.475577  and   1C  -   0.546409
MO   6:   4H  -   0.475577  and   1C  -   0.546409
MO   5:   3H  -   0.475577  and   0C  -   0.546409
MO   4:   2H  -   0.475577  and   0C  -   0.546409
MO   3:   1C  -   0.504273  and   0C  -   0.504273
MO   2:   1C  -   0.504273  and   0C  -   0.504273
Localized MO's were stored in: c2h4_lw1x_Compound_1.loc

Localizing the core orbitals
------------------------------------------------------------------------------
                           ORCA ORBITAL LOCALIZATION
------------------------------------------------------------------------------

Input orbitals are from                  ... c2h4_lw1x_Compound_1.loc
Output orbitals are to                   ... c2h4_lw1x_Compound_1.loc
Max. number of iterations                ... 128
Localizations seeded randomly            ... off
Convergence tolerance                    ... 1.000e-06
Using relative localization threshhold   ... 1.000e-08
Treshold for strong local MOs            ... 9.500e-01
Treshold for bond MOs                    ... 8.500e-01
Operator                                 ... 0
Orbital range for localization           ... 0 to 1
Localization criterion                   ... FOSTER-BOYS (AUGMENTED HESSIAN)
Doing the dipole integrals     ... o.k.
Initial value of the localization sum :     3.129910
ITERATION   0 : L=    3.1299129412 DL=  2.65e-06 (AVERGE_DL)=    0.0016271677 
ITERATION   1 : L=    3.1299129412 DL=  0.00e+00 (AVERGE_DL)=    0.0000000000 
LOCALIZATION SUM CONVERGED

------------------------------------------------------
AUGMENTED HESSIAN OPTIMIZATION OF FOSTER-BOYS ORBITALS
------------------------------------------------------

Spin operator:           0
Orbital window:          0 to 1
Number of iterations:    128
Gradient tolerance:      1.000e-06
Number of pairs:         1
Davidson threshold:      2000
Diagonalization method:  LAPACK
Iter:    0   L: 3.1299129412   Grad. norm: 1.026861e-17
   *** Likely close to a maximum now. ***
       Augmented Hessian eigenvalues:  4.21e-36 -2.50e+01
Iter:    1   L: 3.1299129412   Grad. norm: 1.923579e-34
LOCALIZATION HAS CONVERGED.

Eigenvalues of the Hessian:
  0 -2.504e+01


------------------------------------------------------------------------------- 
                    LOCALIZED MOLECULAR ORBITAL COMPOSITIONS                   
------------------------------------------------------------------------------- 

The Mulliken populations for each LMO on each atom are computed
The LMO`s will be ordered according to atom index and type
  (A) Strongly localized MO`s have populations of >=0.950 on one atom
  (B) Two center bond orbitals have populations of >=0.850 on two atoms
  (C) Other MO`s are considered to be `delocalized`

FOUND  -   2 strongly local MO`s
       -   0 two center bond MO`s
       -   0 significantly delocalized MO`s

Rather strongly localized orbitals:
MO   1:   1C  -   1.000262
MO   0:   0C  -   1.000262
Localized MO's were stored in: c2h4_lw1x_Compound_1.loc

Warning: reference  - re-canonicalizations have been set to INT 1 VIRT 1
Warning: internal orbitals are localized - no re-canonicalization of internal orbitals
Warning: UsePNO is turned on - no re-canonicalization of internal and virtual orbitals

--------------------------
CLOSED-SHELL FOCK OPERATOR
--------------------------

Restoring SHARK [2] ... ok
Entering RIJCOSX section for the Fock matrix
Trying to retrieve the full J-matrix              ... done
Updating the Fock matrix                          ... done
Making the frozen core Coulomb matrix             ... SHARKdone
Retrieving the full K-matrix                      ... done
Calculating the frozen core K-matrix              ... done
Updating the Fock matrix                          ... done
Time needed for Fock operator              ...            1.298 sec
Reference energy                           ...    -78.041993588

------------------------------
Initializing F12 data
------------------------------

Mapping basis set                  ... done
Dimension of the orbital basis set  = 56
Dimension of the CABS basis set     = 352
Dimension of the AUX basis set      = 352
Threshold for CABS orthogonalization = 1.000e-08
Will use an exponential correlation factor -Exp(-gamma r12)/gamma (gamma= 1.200) fit to 6 Gaussians 
Correlation factor:   
  NGauss  :          6      
  Gaussian expansion: 
    a(0)=     0.275538291  d(0)=    -0.219608291 
    a(1)=     1.140545861  d(1)=    -0.254494187 
    a(2)=     3.958256986  d(2)=    -0.154545985 
    a(3)=    13.126859124  d(3)=    -0.093273119 
    a(4)=    49.287410844  d(4)=    -0.057916694 
    a(5)=   272.920095267  d(5)=    -0.035942168 
Calculating one-electron matrices                       ... done (      0.1 sec)
Calculating pre-screening matrices:                     ...
       .... 1/r12 done          (      0.5 sec)
       .... f12/r12 done        (      0.1 sec)
       .... f12 done            (      0.1 sec)
       .... f12^2 done          (      0.2 sec)
       .... [f12,[T1,f12]] done (      0.2 sec)
                                                        ... done (      1.0 sec)
Making CABS spaces                                      ... done (      0.1 sec)
Calculating 2-index 2-center F12 integrals              ... 
Two index explicit correlation integrals  op=0          ... done (      0.1 sec) 
Two index explicit correlation integrals  op=1          ... done (      0.1 sec) 
Two index explicit correlation integrals  op=2          ... done (      0.1 sec) 
Two index explicit correlation integrals  op=3          ... done (      0.1 sec) 
Two index explicit correlation integrals  op=4          ... done (      0.1 sec) 
                                                            done (      0.3 sec)

--------------
DLPNO SETTINGS (2015 fully linear scaling implementation)
--------------

TCutMKN:           1.000e-03
TCutPAO:           1.000e-03
TCutPNO:           1.000e-07
TCutPNOSingles:    3.000e-09
TCutEN:            9.700e-01
TCutPAOExt:        1.000e-01
TCutPairs:         1.000e-05
TCutPre:           1.000e-07
TCutOSV:           1.000e-06
TCutDOij:          1.000e-05
TCutDO:            5.000e-03
TCutC:             1.000e-04
TCutCPAO:          1.000e-03
TCutCMO:           1.000e-03
TScaleDOMP2PreScr: 2.000e+00
TScaleMKNMP2PreScr:1.000e+01
TScalePNOMP2PreScr:1.000e+00
PAO overlap thresh 1.000e-08
Using PNOs for Singles Fock computation
Use new domains
Use fully linear algorithm
TCutTNO:           1.000e-09
TCutMP2Pairs:      1.000e-06
TCutDOStrong:      2.000e-03
TCutMKNStrong:     1.000e-02
TCutMKNWeak:       1.000e-01
TCutDOWeak:        4.000e-03
NTCutTNO:          1

--------------------------
Mulliken population of the LMOs            ... ok
Performing proximity check                 ... No problems found
Calculating differential overlap integrals ... ok

--------------------------
ELECTRON PAIR PRESCREENING
--------------------------

Dipole-based pair screening          .... used

   TCutDOij = 1.000000e-05
   TCutPre  = 1.000000e-07
   .... Finished loop over pairs
Total time spent in the prescreening                  ...     0.002 sec
sum of pair energies estimated for screened out pairs ...       0.000000000000 Eh
Thresholds for map construction and integral transformation for crude MP2:
   TCutMKN                    ...     1.0e-02
   TCutDO                     ...     1.0e-02
   TCutPairs                  ...     1.0e-05
   TCutPNO_CrudeMP2           ...     1.0e-07
   TCutPNOSingles_CrudeMP2    ...     3.0e-09
--------------------------------
LOCAL RI TRANSFORMATION (IAVPAO)
--------------------------------

Orbital window:       2 to 7
Number of PAOs:      56
Basis functions:     56 (28 shells)
Aux. functions:     352 (136 shells)
Use SHARK:           on

Processing maps (0.0 sec)
Average map sizes:
   Aux shells -> MOs               6.0
   Aux shells -> PAOs             56.0
   MOs        -> AO shells        28.0
   PAOs       -> AO shells        28.0

Calculating integrals (0.4 sec, 0.906 MB)
Sorting integrals (0.0 sec, 0.902 MB)
Total time for the integral transformation: 0.5 sec
--------------------------------
INITIAL GUESS AND PNO GENERATION
--------------------------------

PNO truncation parameters                   .... 
    PAOOverlapThresh   =        1.000e-08

    TCutPairs          =        1.000e-05
    TCutPNO            =        1.000e-07
    TCutPNOSingles     =        3.000e-09
    TCutMP2Pairs       =        1.000e-06
    TCutMKN            =        1.000e-02
    TCutDO             =        1.000e-02

Pair selection                          .... not used
Type of local MP2 treatment                 .... semi-local MP2
Strategy for PNO selection                  .... occupation number selection
Pair density normalization                  .... MP2 norm
Spin component scaling                      .... not used

   .... Finished loop over pairs
Making pair pair interaction lists          ... done

                       ===========================
                         21 OF   21 PAIRS ARE KEPT CCSD PAIRS
                          0 OF   21 PAIRS ARE KEPT MP2 PAIRS FOR (T)
                          0 OF   21 PAIRS ARE SKIPPED
                       ===========================

Total time spent in the initial guess                 ...     0.122 sec
SL-MP2 correlation energy (all non-screened pairs)    ...      -0.265720734414 Eh

Initial PNO correlation energy                        ...      -0.265696968756 Eh
sum of pair energies prescreened and skipped MP2 pairs...       0.000000000000 Eh
sum of pair energies of crude MP2 skipped pairs only  ...       0.000000000000 Eh
sum of MP2 pair energies for pairs that were not kept ...       0.000000000000 Eh
sum of PNO error estimates for the kept pairs         ...      -0.000023765658 Eh
                                                          --------------------
sum of all corrections                                         -0.000023765658
Initial total correlation energy                               -0.265720734414
Thresholds for map construction and integral transformation for fine MP2 and CCSD(T) calculation:
   TCutMKN   ...     1.0e-03
   TCutDO    ...     5.0e-03
   TCutPairs ...     1.0e-05
   TCutCMO   ...     1.0e-03
   TCutCPAO  ...     1.0e-03

Thresholds for map construction and integral transformation for strong Triples:
   TCutMKN   ...     1.0e-02
   TCutDO    ...     1.0e-02
   TCutCMO   ...     1.0e-03
   TCutCPAO  ...     1.0e-03

Thresholds for map construction and integral transformation for weak Triples:
   TCutMKN   ...     1.0e-01
   TCutDO    ...     2.0e-02
   TCutCMO   ...     1.0e-03
   TCutCPAO  ...     1.0e-03

--------------------------------
LOCAL RI TRANSFORMATION (IAVPAO)
--------------------------------

Orbital window:       2 to 7
Number of PAOs:      56
Basis functions:     56 (28 shells)
Aux. functions:     352 (136 shells)
Use SHARK:           on

Processing maps (0.0 sec)
Average map sizes:
   Aux shells -> MOs               6.0
   Aux shells -> PAOs             56.0
   MOs        -> AO shells        28.0
   PAOs       -> AO shells        28.0

Calculating integrals (0.2 sec, 0.906 MB)
Sorting integrals (0.0 sec, 0.902 MB)
Total time for the integral transformation: 0.2 sec
--------------------------------
INITIAL GUESS AND PNO GENERATION
--------------------------------

PNO truncation parameters                   .... 
    ScaleTCutPNO       =        1.000e-02
    PAOOverlapThresh   =        1.000e-08

    TCutPairs          =        1.000e-05
    TCutPNO            =        1.000e-07
    TCutPNOSingles     =        3.000e-09
    TCutMP2Pairs       =        1.000e-06
    TCutMKN            =        1.000e-03
    TCutDO             =        5.000e-03

Pair selection                          .... not used
Type of local MP2 treatment                 .... full local PMP2
Strategy for PNO selection                  .... occupation number selection
Pair density normalization                  .... MP2 norm
Spin component scaling                      .... not used

PASS-1: Formation of initial guess LMP2 amplitudes
Initial amplitudes guess done. Entering LMP2 iteration loop:
   Max. no of iterations          ...  50
   Energy convergence tolerance   ...    1.0e-07
   Residual convergence tolerance ...    5.0e-07
   Fock matrix cutoff             ...    1.0e-05 Eh
   DIIS convergence acceleration parameters:
        Max # vectors in DIIS     ... 7
        Start iteration of DIIS   ... 0
        Levelshift                ... 2.000e-01
        Damping factor 1          ... 5.000e-01
        Damping factor 2          ... 1.000e+00
   L-MP2 PNO cut-off              ...   1.0e-09
   L-MP2 PNO cut-off (core)       ...   1.0e-11
                           *** Turning on DIIS ***
LMP2-Iter=   0:  ELMP2= -0.271199128535  DE=   5.4e-03 RMAX=   1.3e-02
LMP2-Iter=   1:  ELMP2= -0.274605325168  DE=   3.4e-03 RMAX=   2.9e-03
LMP2-Iter=   2:  ELMP2= -0.275351103168  DE=   7.5e-04 RMAX=   1.7e-03
LMP2-Iter=   3:  ELMP2= -0.275414071814  DE=   6.3e-05 RMAX=   3.0e-04
LMP2-Iter=   4:  ELMP2= -0.275403287496  DE=   1.1e-05 RMAX=   7.4e-05
LMP2-Iter=   5:  ELMP2= -0.275402581523  DE=   7.1e-07 RMAX=   1.6e-05
LMP2-Iter=   6:  ELMP2= -0.275402675686  DE=   9.4e-08 RMAX=   4.0e-06
LMP2-Iter=   7:  ELMP2= -0.275402719786  DE=   4.4e-08 RMAX=   1.0e-06
LMP2-Iter=   8:  ELMP2= -0.275402719358  DE=   4.3e-10 RMAX=   2.0e-07
LMP2-Iter=   9:  ELMP2= -0.275402717381  DE=   2.0e-09 RMAX=   4.6e-08 => CONVERGED
PASS-2: Formation of Pair natural orbitals
   .... Finished loop over pairs

 PNO Occupation Number Statistics: 
  | Av. % of trace(Dij) retained        ...  99.989831662296
  | sigma^2 in % of trace(Dij) retained ...   1.89e-04
  | Av. % of trace(Di) retained         ...  99.999955375666
  | sigma^2 in % of trace(Di) retained  ...   6.90e-10
 Distributions of % trace(Dij) recovered:
  |       >= 99.9  ...    21 (100.0 % of all pairs)
 Distributions of % trace(Di) recovered :
  |       >= 99.9  ...     6 (100.0 % of all I-pairs )

Making pair pair interaction lists          ... done

                       ===========================
                         21 OF   21 PAIRS ARE KEPT
                       ===========================

Total time spent in the initial guess                 ...     1.895 sec
L-MP2 correlation energy (all non-screened pairs)     ...      -0.275402717381 Eh
L-MP2 PNO error correction                            ...      -0.000000057491 Eh
                                                          --------------------
Initial total L-MP2 energy (non-screened pairs)       ...      -0.275402774872 Eh

Initial PNO correlation energy                        ...      -0.275382486101 Eh
sum of pair energies estimated for screened out pairs ...       0.000000000000 Eh
sum of MP2 pair energies for pairs that were not kept ...       0.000000000000 Eh
sum of PNO error estimates for the kept pairs         ...      -0.000020288771 Eh
                                                          --------------------
sum of all corrections                                         -0.000020288771
Initial total correlation energy                               -0.275402774872
Thresholds for map construction and integral transformation for fine MP2 and CCSD(T) calculation:
   TCutMKN   ...     1.0e-03
   TCutDO    ...     5.0e-03
   TCutPairs ...     1.0e-05
   TCutCMO   ...     1.0e-03
   TCutCPAO  ...     1.0e-03

Number of pairs in F12 (TCutDOF12 = 3.000e-04)        ...     21

Time for aux screen maps:            0.002
Time for maps after fine MP2:            0.003
-----------------------------
LOCAL RI TRANSFORMATION (IJV)
-----------------------------

Orbital window:       2 to 7
Basis functions:     56 (28 shells)
Aux. functions:     352 (136 shells)
Use SHARK:           on

Processing maps (0.0 sec)
Average map sizes:
   Aux shells -> MOs(i)            6.0
   Aux shells -> MOs(j)            6.0
   MOs        -> AO shells        28.0

Calculating integrals (0.2 sec, 0.101 MB)
Sorting integrals (0.0 sec, 0.097 MB)
Total time for the integral transformation: 0.2 sec
--------------------------------
LOCAL RI TRANSFORMATION (VABPAO)
--------------------------------

Number of PAOs:      56
Basis functions:     56 (28 shells)
Aux. functions:     352 (136 shells)
Use SHARK:           on

Processing maps (0.0 sec)
Average map sizes:
   Aux shells -> PAOs             56.0
   PAOs       -> AO shells        28.0

Calculating integrals (0.3 sec, 8.426 MB)
Finished


-------------------------------------
Pair Pair Term precalculation with     
RI-(ij|mn) and (im|jn) transformation  
ON THE FLY                             
-------------------------------------

   IBatch   1 (of   1)              ... done (    0.594 sec)
Total EXT                           ...           0.594 sec

---------------------
RI-PNO TRANSFORMATION
---------------------

Total Number of PNOs                   ...   706
Average number of PNOs per pair        ...    33
Maximal number of PNOs per pair        ...    40
   #pairs with  1 -  5 PNOs   :    0
   #pairs with  6 - 10 PNOs   :    0
   #pairs with 11 - 15 PNOs   :    0
   #pairs with 16 - 20 PNOs   :    0
   #pairs with 21 - 25 PNOs   :    0
   #pairs with 26 - 30 PNOs   :    4
   #pairs with 31 - 35 PNOs   :    6
   #pairs with 36 - 40 PNOs   :   11
   #pairs with 41 - 45 PNOs   :    0
   #pairs with 46 - 50 PNOs   :    0

Generation of (ij|ab)[P] integrals            ... on
Generation of (ia|bc)[P],(ja|bc)[P] integrals ... on
Storage of 3 and 4 external integrals         ... on
Generation of ALL (ka|bc)[P] integrals        ... on
Keep RI integrals in memory                   ... off

Ibatch:  1 (of  1)
Starting 2-4 index PNO integral generation ... done

Timings:
Total PNO integral transformation time     ...          0.501 sec
Size of the 3-external file                ...         6 MB
Size of the 4-external file                ...        29 MB
Size of the IKJL file                      ...         0 MB
Size of the all 3-external file            ...        19 MB
Size of the 1-external file                ...         0 MB

Making pair/pair overlap matrices          ... done (    0.026 sec)
Size of the pair overlap file              ... 3 MB
Redoing the guess amplitudes               ... done (    0.025 sec)

-------------------------
FINAL STARTUP INFORMATION
-------------------------

E(0)                                       ...    -78.041993588
E(L-MP2)                                   ...     -0.275402775
E(L-MP2) including corrections             ...     -0.275402775
Initial E(tot)                             ...    -78.317396362
<T|T>                                      ...      0.090954471
Number of pairs included                   ... 21
Total number of pairs                      ... 21

------------------------------------------------
                  RHF COUPLED CLUSTER ITERATIONS
------------------------------------------------

Number of PNO amplitudes to be optimized   ...        24074
Number of non-PNO amplitudes               ...        48384
Untruncated number of regular amplitudes   ...        48384

Iter       E(tot)           E(Corr)          Delta-E          Residual     Time
  0    -78.307748293     -0.265734416      0.009668358      0.014685922    1.19
                           *** Turning on DIIS ***
  1    -78.331914273     -0.289900397     -0.024165980      0.008939994    1.76
  2    -78.343968173     -0.301954297     -0.012053900      0.005158310    1.25
  3    -78.346000679     -0.303986803     -0.002032505      0.002546155    1.94
  4    -78.346859112     -0.304845235     -0.000858433      0.001010389    1.10
  5    -78.347145425     -0.305131549     -0.000286313      0.000230083    1.54
  6    -78.347179290     -0.305165413     -0.000033865      0.000075220    2.61
  7    -78.347178056     -0.305164180      0.000001233      0.000034484    2.49
  8    -78.347178992     -0.305165115     -0.000000935      0.000014812    1.40
               --- The Coupled-Cluster iterations have converged ---
Making OccT1 to AO map ... ok
3-index local transformation (OBS,OBS/AUX) for   op=0   ... done (      0.1 sec)
3-index local transformation (OBS,CABS/AUX) for  op=0   ... done (      0.1 sec)
3-index local transformation (OBS,OBS/AUX) for   op=1   ... done (      0.1 sec)
3-index local transformation (OBS,CABS/AUX) for  op=1   ... done (      0.2 sec)
3-index local transformation (OBS,OBS/AUX) for   op=2   ... done (      0.2 sec)
3-index local transformation (OBS,CABS/AUX) for  op=2   ... done (      0.2 sec)
3-index local transformation (OBS,OBS/AUX) for   op=3   ... done (      0.1 sec)
3-index local transformation (OBS,CABS/AUX) for  op=3   ... done (      0.4 sec)
3-index local transformation (OBS,OBS/AUX) for   op=4   ... done (      0.1 sec)
3-index local transformation (OBS,CABS/AUX) for  op=4   ... done (      0.4 sec)
3-index local transformation (OBS,OBS/AUX) of (pa|X)    ... done (      0.1 sec)
3-index local transformation (OBS_T1,OBS/AUX) for op=0  ... done (      0.1 sec)
3-index local transformation (OBS_T1,OBS/AUX) for op=1  ... done (      0.1 sec)
3-index local transformation (OBS_F,OBS/AUX) for op=2   ... done (      0.1 sec)
3-index local transformation (OBS_F,CABS/AUX)for op=2   ... done (      0.2 sec)
------------------------
RHF DLPNO F12 CORRECTION
------------------------

Doing SCF density matrices                              ... done (      0.0 sec)
Calculating RI Coulomb operators
Retrieving the Coulomb fitting basis                    ... done
       .... OBS/OBS done        (      0.1 sec)
       .... CABS/OBS done       (      0.1 sec)
       .... CABS/CABS done      (      0.2 sec)

F12 OBS GRIDX
-------------

General Integration Accuracy     IntAcc      ... 4.338
Radial Grid Type                 RadialGrid  ... OptM3 with GC (2021)
Angular Grid (max. ang.)         AngularGrid ... 3 (Lebedev-194)
Angular grid pruning method      GridPruning ... 5 (extended)
Weight generation scheme         WeightScheme... Becke
Basis function cutoff            BFCut       ... 1.0000e-10
Integration weight cutoff        WCut        ... 1.0000e-14
Angular grids for H and He will be reduced by one unit
Partially contracted basis set               ... on
Rotationally invariant grid construction     ... off

Total number of grid points                  ...    43372
Total number of batches                      ...      681
Average number of points per batch           ...       63
Average number of grid points per atom       ...     7229

F12 CABS GRIDX
--------------

General Integration Accuracy     IntAcc      ... 4.338
Radial Grid Type                 RadialGrid  ... OptM3 with GC (2021)
Angular Grid (max. ang.)         AngularGrid ... 3 (Lebedev-194)
Angular grid pruning method      GridPruning ... 5 (extended)
Weight generation scheme         WeightScheme... Becke
Basis function cutoff            BFCut       ... 1.0000e-10
Integration weight cutoff        WCut        ... 1.0000e-14
Angular grids for H and He will be reduced by one unit
Partially contracted basis set               ... on
Rotationally invariant grid construction     ... off

Total number of grid points                  ...    43372
Total number of batches                      ...      681
Average number of points per batch           ...       63
Average number of grid points per atom       ...     7229

Calculating COSX Exchange operators
       .... OBS/OBS done        (      0.6 sec)
       .... CABS/OBS done       (      0.7 sec)
       .... CABS/CABS done      (      3.3 sec)
Completing Fock operators                               ... done (      0.0 sec)
Calculating F12 intermediates (incore)                  ... 

WARNING (ORCA_TOOLS): CalcCholeskyLLoc() returned with error 1
                      Potentially linear dependencies in the aux basis!



WARNING (ORCA_TOOLS): CalcCholeskyLLoc() returned with error 1
                      Potentially linear dependencies in the aux basis!



WARNING (ORCA_TOOLS): CalcCholeskyLLoc() returned with error 1
                      Potentially linear dependencies in the aux basis!



WARNING (ORCA_TOOLS): CalcCholeskyLLoc() returned with error 1
                      Potentially linear dependencies in the aux basis!



WARNING (ORCA_TOOLS): CalcCholeskyLLoc() returned with error 1
                      Potentially linear dependencies in the aux basis!


Total T*B*T Contribution              =   0.065777960896

Total V*T MP2 Contribution            =  -0.153337906049

Total V*T CCSD without S Contribution =  -0.127718516289

Total V*T CCSD with S Contribution    =  -0.128502117100

DeltaEC_MP2                           =  -0.087559945154

DeltaEC_CCSD without S                =  -0.061940555393

DeltaEC_CCSD with S                   =  -0.062724156204
Total time of computation of intermediates                       (      0.9 sec)
Calculating correlation correction                      ... done (      0.0 sec)

F12 correction                   :  -0.062724156204
HF basis set correction          :  -0.024049628729
Sum of the two                   :  -0.086773784933

Total time for F12 correction    :     6.682 sec
  .... cleaning up and leaving F12-CCSD

----------------------
COUPLED CLUSTER ENERGY
----------------------

Uncorrected 0th order energy               ...    -78.041993588
F12-HF basis set correction                ...     -0.024049629
Corrected 0th order energy                 ...    -78.066043216

E(CORR)(strong-pairs)                      ...     -0.305165115
E(CORR)(weak-pairs)                        ...     -0.000020289
E(CORR)(corrected)                         ...     -0.305185404
Uncorrected correlation energy             ...     -0.305165115
F12-correction to the correlation energy   ...     -0.062724156
Final F12 correlation energy               ...     -0.367909560

E(TOT)-before F12 corrections              ...    -78.347178992
E(TOT)-after HF correction                 ...    -78.371228620
E(TOT)-after all F12 corrections           ...    -78.433952777

Singles Norm <S|S>**1/2                    ...      0.035079436  
T1 diagnostic                              ...      0.010126561  

------------------
LARGEST AMPLITUDES
------------------
   3-> 12   2-> 12       0.041828
   3-> 11   3-> 11       0.040963
   2-> 11   2-> 11       0.040963
   3->  8   3-> 11       0.032806
   3-> 11   3->  8       0.032806
   2-> 11   2->  8       0.032806
   2->  8   2-> 11       0.032806
   3-> 12   2->  9       0.031433
   3->  9   2-> 12       0.031433
   5-> 17   5-> 17       0.028953
   7-> 17   7-> 17       0.028953
   6-> 17   6-> 17       0.028953
   4-> 17   4-> 17       0.028953
   3->  8   3->  8       0.027081
   2->  8   2->  8       0.027081
   5-> 11   5-> 11       0.024682


-------------------------------------------
DLPNO BASED TRIPLES CORRECTION
-------------------------------------------

Singles multiplier          ...  1.000000
TCutTNO                     ... 1.000e-09
TCutMP2Pairs                ... 1.000e-06
TCutDOStrong                ... 1.000e-02
TCutMKNStrong               ... 1.000e-02
TCutDOWeak                  ... 2.000e-02
TCutMKNWeak                 ... 1.000e-01

Parameters used in iterative triples
TCutFock                    ... 1.000e-03
TCutWeak                    ... 1.000e-08
TCutWeakGuess               ... 6.000e-06
TCutIter                    ... 1.000e-03
TNOScaleS                   ... 1.000e+01
TNOScaleW                   ... 1.000e+02
ETol                        ... 1.000e-04

Fragment selection                          .... not used
Number of Triples that are to be computed   ...        50

 . . . . . . . . .
10% done  
20% done  
30% done  
40% done  
50% done  
60% done  
70% done  
80% done  
90% done               (      0.905 sec)

-------------------
Triples Iterations:
-------------------

The T1 Strong/Weak pair is = 31/19 

Iter        E(Triple)      Delta-E            Time
  0     0.000000000000    0.009435254236      0.94
  1    -0.009839094051    0.000403839816      0.97
  2    -0.009895965364    0.000056871312      1.29

------------------
TRIPLES CORRECTION
------------------

The Conventional (T0) is    -0.009444472227
The Truncated    (T0) is    -0.009435254236
The corrected     (T) is    -0.009905183355

Triples timings:
Total time for T0               ...     0.999 sec
Total time for Iterative (T)    ...     2.733 sec
Total time of overall (T)       ...     4.045 sec

Triples List generation         ...     0.000 sec
TNO generation                  ...     0.033 sec
Pair density generation         ...     0.000 sec
Look up tables                  ...     0.000 sec
Generating 3-index integrals    ...     0.321 sec
  Make 4-ind.int. from 3-ind.int...     0.111 sec
  Projecting amplitudes (D + S) ...     0.008 sec
  Downprojecting integrals      ...     0.112 sec
  Energy contr. (sum over a,b,c)...     0.263 sec
Fitting ET(->0)                 ...     0.000 sec

Everything after 3-index        ...     0.585 sec

Timing details:
 TNO integrals                  ...     0.424 sec
   Reading 3-index integrals    ...     0.216 sec
   Sorting integrals            ...     0.034 sec
       Sorting integrals 1      ...     0.000 sec
       Sorting integrals 2      ...     0.013 sec
       Sorting integrals 3      ...     0.005 sec
       Sorting integrals 4      ...     0.000 sec
       Sorting integrals 5      ...     0.001 sec
       Sorting integrals 6      ...     0.015 sec
   Calculating local VM**-1/2   ...     0.013 sec
   Orthogonal. integrals        ...     0.033 sec
   Multipl. 3-index integrals   ...     0.127 sec
   All concerning IRIab (w/TNO) ...     0.046 sec

 Calculate W0/W1                ...     0.089 sec
 W 3-ext contribution           ...     0.052 sec
 W 3-int contribution           ...     0.011 sec
 Sorting W                      ...     0.022 sec

 V exchange contribution        ...     0.068 sec

 Timings for Triples without generation
     of 3-index integrals       ...     0.585 sec
       0 weak pairs             ...     0.585 sec
       1 weak pair              ...     0.000 sec
       2 weak pairs             ...     0.000 sec
       3 weak pairs             ...     0.000 sec
  Extra time for extrapolation  ...     0.000 sec

Number of Triples   (0, 1, 2, 3 weak pairs; overall):     50       0       0       0  (    50)
Number of Atoms     (0, 1, 2, 3 weak pairs; overall):    6.0     0.0     0.0     0.0  (     6)
Number of PAOs      (0, 1, 2, 3 weak pairs; overall):   56.0     0.0     0.0     0.0  (    56)
Number of AuxFcns   (0, 1, 2, 3 weak pairs; overall):  304.0     0.0     0.0     0.0  (   352)
Number of TNOs      (0, 1, 2, 3 weak pairs         ):   46.8     0.0     0.0     0.0
Aver. Number of NTNO, Atoms, PAOs, AuxFcns / Triples:     50    46.8     6.0    56.0   304.0

Triples Correction (T)                     ...     -0.009905183
Final correlation energy (without F12)     ...     -0.315090587
Final correlation energy (with F12)        ...     -0.377814744
F12-E(CCSD)                                ...    -78.433952777
F12-E(CCSD(T))                             ...    -78.443857960



------------------------------------------------------------------------------- 
                                     TIMINGS                                   
------------------------------------------------------------------------------- 


Total execution time                   ...       39.350 sec

Localization of occupied MO's          ...        0.860 sec (  2.2%)
Fock Matrix Formation                  ...        1.298 sec (  3.3%)
Global overlap, Fock, MKN matrices     ...        0.314 sec (  0.8%)
Differential overlap integrals         ...        0.921 sec (  2.3%)
Organizing maps                        ...        0.040 sec (  0.1%)
RI 3-index integral generations        ...        1.105 sec (  2.8%)
RI-PNO integral transformation         ...        1.290 sec (  3.3%)
Initial Guess                          ...        2.141 sec (  5.4%)
DIIS Solver                            ...        0.752 sec (  1.9%)
State Vector Update                    ...        0.005 sec (  0.0%)
Sigma-vector construction              ...       14.959 sec ( 38.0%)
  <D|H|D>(0-ext)                       ...        1.145 sec (  7.7% of sigma)
  <D|H|D>(2-ext Fock)                  ...        0.001 sec (  0.0% of sigma)
  <D|H|D>(2-ext)                       ...        1.453 sec (  9.7% of sigma)
  <D|H|D>(4-ext)                       ...        0.393 sec (  2.6% of sigma)
  <D|H|D>(4-ext-corr)                  ...        0.911 sec (  6.1% of sigma)
  CCSD doubles correction              ...        0.501 sec (  3.4% of sigma)
  <S|H|S>                              ...        2.584 sec ( 17.3% of sigma)
  <S|H|D>(1-ext)                       ...        0.041 sec (  0.3% of sigma)
  <S|H|D>(3-ext)                       ...        0.062 sec (  0.4% of sigma)
  Fock-dressing                        ...        2.555 sec ( 17.1% of sigma)
  Singles amplitudes                   ...        0.484 sec (  3.2% of sigma)
  (ik|jl)-dressing                     ...        1.368 sec (  9.1% of sigma)
  (ij|ab),(ia|jb)-dressing             ...        2.507 sec ( 16.8% of sigma)
  Pair energies                        ...        0.011 sec (  0.1% of sigma)
  Shift terms                          ...        0.004 sec (  0.0% of sigma)
Total Time for computing F12           ...        9.507 sec ( 24.2% of ALL)
Total Time for computing (T)           ...        4.046 sec ( 10.3% of ALL)


Maximum memory used throughout the entire MDCI-calculation: 266.7 MB

-------------------------   --------------------
FINAL SINGLE POINT ENERGY       -78.443857959943
-------------------------   --------------------


                            ***************************************
                            *     ORCA property calculations      *
                            ***************************************


  WARNING: The energy has been calculated at the MDCI level but the densities
           used in the property calculations are still SCF densities
           MDCI response densities have not been calculated 
           use %mdci Density linearized end
           or  %mdci Density unrelaxed end
           or  %mdci Density orbopt end

                                    ---------------------
                                    Active property flags
                                    ---------------------
   (+) Dipole Moment


------------------------------------------------------------------------------
                       ORCA ELECTRIC PROPERTIES CALCULATION
------------------------------------------------------------------------------

Dipole Moment Calculation                       ... on
Quadrupole Moment Calculation                   ... off
Polarizability Calculation                      ... off
GBWName                                         ... c2h4_lw1x_Compound_1.gbw
Electron density                                ... c2h4_lw1x_Compound_1.scfp
The origin for moment calculation is the CENTER OF MASS  = ( 0.000000,  0.000000  0.000000)

-------------
DIPOLE MOMENT
-------------
                                X             Y             Z
Electronic contribution:     -0.00000       0.00000      -0.00000
Nuclear contribution   :      0.00000       0.00000       0.00000
                        -----------------------------------------
Total Dipole Moment    :     -0.00000       0.00000      -0.00000
                        -----------------------------------------
Magnitude (a.u.)       :      0.00000
Magnitude (Debye)      :      0.00000



--------------------
Rotational spectrum 
--------------------
 
Rotational constants in cm-1:     4.934519     1.012758     0.840296 
Rotational constants in MHz : 147933.160668 30361.719210 25191.441779 

 Dipole components along the rotational axes: 
x,y,z [a.u.] :    -0.000000     0.000000    -0.000000 
x,y,z [Debye]:    -0.000000     0.000000    -0.000000 

 

Timings for individual modules:

Sum of individual times         ...       49.204 sec (=   0.820 min)
GTO integral calculation        ...        3.022 sec (=   0.050 min)   6.1 %
SCF iterations                  ...        5.962 sec (=   0.099 min)  12.1 %
MDCI module                     ...       40.220 sec (=   0.670 min)  81.7 %


################################################################################


                                COMPOUND JOB  2 
Basename: c2h4_lw1x_Compound_2
NOTE: please remember that MaxCore and PAL settings will be ignored.

################################################################################

================================================================================
                                       INPUT FILE
================================================================================
NAME = c2h4_lw1x_Compound_2.inp
|  1>     ! DefGrid3 RIJCOSX TightPNO DLPNO-CCSD(T1)-F12 MiniPrint NoPop
|  2>     %Basis
|  3>       Basis "maug-cc-pV(T+d)Z"
|  4>       AuxJ  "AutoAux"
|  5>       AuxC  "AutoAux"
|  6>       CABS  "AutoAux"
|  7>     End
|  8> 
|  9>                          ****END OF INPUT****
================================================================================
Warning! AutoAux has not been tested for CABS - use at your own risk!
================================================================================

----- Orbital basis set information -----
Your calculation utilizes the basis: may-cc-pV(T+d)Z 
  E. Papajak, D. G. Truhlar, J. Chem. Theory Comput. 7, 10-18 (2011).

----- AuxJ basis set information -----
Your calculation utilizes the AutoAux generation procedure.
  G. L. Stoychev, A. A. Auer, F. Neese, J. Chem. Theory Comput. 13, 554 (2017)

----- AuxC basis set information -----
Your calculation utilizes the AutoAux generation procedure.
  G. L. Stoychev, A. A. Auer, F. Neese, J. Chem. Theory Comput. 13, 554 (2017)

----- CABS information -----
Your calculation utilizes the AutoAux generation procedure.
  G. L. Stoychev, A. A. Auer, F. Neese, J. Chem. Theory Comput. 13, 554 (2017)


                    <<< The CABS basis set will be decontracted >>>

================================================================================
                                        WARNINGS
                       Please study these warnings very carefully!
================================================================================


WARNING: Post HF methods need fully converged wavefunctions
  ===> : Setting SCFConvForced true
         You can overwrite this default with %scf ConvForced false 


WARNING: MDCI localization with Augmented Hessian Foster-Boys
  ===> : Switching off randomization!

INFO   : the flag for use of the SHARK integral package has been found!


                       ****************************
                       * Single Point Calculation *
                       ****************************

---------------------------------
CARTESIAN COORDINATES (ANGSTROEM)
---------------------------------
  C      0.000000    0.000000    0.661989
  C      0.000000    0.000000   -0.661989
  H      0.000000    0.920483    1.231826
  H      0.000000   -0.920483    1.231826
  H      0.000000    0.920483   -1.231826
  H      0.000000   -0.920483   -1.231826

----------------------------
CARTESIAN COORDINATES (A.U.)
----------------------------
  NO LB      ZA    FRAG     MASS         X           Y           Z
   0 C     6.0000    0    12.011    0.000000    0.000000    1.250978
   1 C     6.0000    0    12.011    0.000000    0.000000   -1.250978
   2 H     1.0000    0     1.008    0.000000    1.739461    2.327814
   3 H     1.0000    0     1.008    0.000000   -1.739461    2.327814
   4 H     1.0000    0     1.008    0.000000    1.739461   -2.327814
   5 H     1.0000    0     1.008    0.000000   -1.739461   -2.327814



           ************************************************************
           *        Program running with 5 parallel MPI-processes     *
           *              working on a common directory               *
           ************************************************************
------------------------------------------------------------------------------
                   ___                                                        
                  /   \      - P O W E R E D   B Y -                         
                 /     \                                                     
                 |  |  |   _    _      __       _____    __    __             
                 |  |  |  | |  | |    /  \     |  _  \  |  |  /  |          
                  \  \/   | |  | |   /    \    | | | |  |  | /  /          
                 / \  \   | |__| |  /  /\  \   | |_| |  |  |/  /          
                |  |  |   |  __  | /  /__\  \  |    /   |      \           
                |  |  |   | |  | | |   __   |  |    \   |  |\   \          
                \     /   | |  | | |  |  |  |  | |\  \  |  | \   \       
                 \___/    |_|  |_| |__|  |__|  |_| \__\ |__|  \__/        
                                                                              
                      - O R C A' S   B I G   F R I E N D -                    
                                      &                                       
                       - I N T E G R A L  F E E D E R -                       
                                                                              
 v1 FN, 2020, v2 2021                                                         
------------------------------------------------------------------------------


Reading SHARK input file c2h4_lw1x_Compound_2.SHARKINP.tmp ... ok
----------------------
SHARK INTEGRAL PACKAGE
----------------------

Number of atoms                             ...      6
Number of basis functions                   ...    124
Number of shells                            ...     48
Maximum angular momentum                    ...      3
Integral batch strategy                     ... SHARK/LIBINT Hybrid
RI-J (if used) integral strategy            ... SPLIT-RIJ (Revised 2003 algorithm where possible)
Printlevel                                  ...      1
Contraction scheme used                     ... SEGMENTED contraction
Coulomb Range Separation                    ... NOT USED
Exchange Range Separation                   ... NOT USED
Finite Nucleus Model                        ... NOT USED
Auxiliary Coulomb fitting basis             ... AVAILABLE
   # of basis functions in Aux-J            ...    576
   # of shells in Aux-J                     ...    180
   Maximum angular momentum in Aux-J        ...      4
Auxiliary J/K fitting basis                 ... NOT available
Auxiliary Correlation fitting basis         ... AVAILABLE
   # of basis functions in Aux-C            ...    576
   # of shells in Aux-C                     ...    180
   Maximum angular momentum in Aux-C        ...      4
Auxiliary 'external' fitting basis          ... NOT available
Integral threshold                          ...     1.000000e-10
Primitive cut-off                           ...     1.000000e-11
Primitive pair pre-selection threshold      ...     1.000000e-11

Calculating pre-screening integrals         ... done (  0.0 sec) Dimension = 48
Organizing shell pair data                  ... done (  0.0 sec)
Shell pair information
Total number of shell pairs                 ...      1176
Shell pairs after pre-screening             ...      1176
Total number of primitive shell pairs       ...      4046
Primitive shell pairs kept                  ...      3646
          la=0 lb=0:    253 shell pairs
          la=1 lb=0:    352 shell pairs
          la=1 lb=1:    136 shell pairs
          la=2 lb=0:    176 shell pairs
          la=2 lb=1:    128 shell pairs
          la=2 lb=2:     36 shell pairs
          la=3 lb=0:     44 shell pairs
          la=3 lb=1:     32 shell pairs
          la=3 lb=2:     16 shell pairs
          la=3 lb=3:      3 shell pairs

Calculating one electron integrals          ... done (  0.0 sec)
Calculating RI/J V-Matrix + Cholesky decomp.... done (  0.0 sec)
Calculating RI/C V-Matrix + Cholesky decomp.... done (  0.0 sec)
Calculating Nuclear repulsion               ... done (  0.0 sec) ENN=     33.500164572333 Eh

SHARK setup successfully completed in   0.2 seconds

Maximum memory used throughout the entire GTOINT-calculation: 17.6 MB


           ************************************************************
           *        Program running with 5 parallel MPI-processes     *
           *              working on a common directory               *
           ************************************************************

Diagonalization of the overlap matrix:
Smallest eigenvalue                        ... 3.935e-04
Time for diagonalization                   ...    0.007 sec
Threshold for overlap eigenvalues          ... 1.000e-08
Number of eigenvalues below threshold      ... 0
Time for construction of square roots      ...    0.004 sec
Total time needed                          ...    0.033 sec

Atom 0: N(Shells)= 12 and 8 - projection required
--------------------
COSX GRID GENERATION
--------------------

GRIDX 1
-------
General Integration Accuracy     IntAcc      ... 4.020
Radial Grid Type                 RadialGrid  ... OptM3 with GC (2021)
Angular Grid (max. ang.)         AngularGrid ... 2 (Lebedev-110)
Angular grid pruning method      GridPruning ... 4 (adaptive)
Weight generation scheme         WeightScheme... Becke
Basis function cutoff            BFCut       ... 1.0000e-10
Integration weight cutoff        WCut        ... 1.0000e-14
Angular grids for H and He will be reduced by one unit
Partially contracted basis set               ... on
Rotationally invariant grid construction     ... off

Total number of grid points                  ...     7652
Total number of batches                      ...      122
Average number of points per batch           ...       62
Average number of grid points per atom       ...     1275
UseSFitting                                  ... on

GRIDX 2
-------
General Integration Accuracy     IntAcc      ... 4.338
Radial Grid Type                 RadialGrid  ... OptM3 with GC (2021)
Angular Grid (max. ang.)         AngularGrid ... 3 (Lebedev-194)
Angular grid pruning method      GridPruning ... 4 (adaptive)
[...]
   2   2.0000      -1.035479       -28.1768 
   3   2.0000      -0.791697       -21.5432 
   4   2.0000      -0.642169       -17.4743 
   5   2.0000      -0.589239       -16.0340 
   6   2.0000      -0.504285       -13.7223 
   7   2.0000      -0.378432       -10.2976 
   8   0.0000       0.153744         4.1836 
   9   0.0000       0.159204         4.3322 
  10   0.0000       0.186347         5.0708 
  11   0.0000       0.190772         5.1912 
  12   0.0000       0.241577         6.5737 
  13   0.0000       0.367021         9.9871 
  14   0.0000       0.368051        10.0152 
  15   0.0000       0.439703        11.9649 
  16   0.0000       0.442160        12.0318 
  17   0.0000       0.480529        13.0759 
  18   0.0000       0.563872        15.3437 
  19   0.0000       0.589777        16.0486 
  20   0.0000       0.593514        16.1503 
  21   0.0000       0.634540        17.2667 
  22   0.0000       0.635853        17.3024 
  23   0.0000       0.677547        18.4370 
  24   0.0000       0.695033        18.9128 
  25   0.0000       0.793791        21.6002 
  26   0.0000       0.829876        22.5821 
  27   0.0000       0.851217        23.1628 
  28   0.0000       0.875424        23.8215 
  29   0.0000       0.986874        26.8542 
  30   0.0000       1.085648        29.5420 
  31   0.0000       1.098607        29.8946 
  32   0.0000       1.180985        32.1362 
  33   0.0000       1.182226        32.1700 
  34   0.0000       1.218691        33.1623 
  35   0.0000       1.231488        33.5105 
  36   0.0000       1.298282        35.3280 
  37   0.0000       1.319127        35.8953 
  38   0.0000       1.377565        37.4854 
  39   0.0000       1.460312        39.7371 
  40   0.0000       1.460440        39.7406 
  41   0.0000       1.548877        42.1471 
  42   0.0000       1.582046        43.0497 
  43   0.0000       1.593484        43.3609 
  44   0.0000       1.611019        43.8381 
  45   0.0000       1.611398        43.8484 
  46   0.0000       1.614724        43.9389 
  47   0.0000       1.881427        51.1962 
  48   0.0000       2.228059        60.6286 
  49   0.0000       2.270079        61.7720 
  50   0.0000       2.408912        65.5498 
  51   0.0000       2.513075        68.3842 
  52   0.0000       2.550174        69.3938 
  53   0.0000       2.564197        69.7753 
  54   0.0000       2.628511        71.5254 
  55   0.0000       2.741232        74.5927 
  56   0.0000       2.860211        77.8303 
  57   0.0000       2.946421        80.1762 
  58   0.0000       2.967260        80.7432 
  59   0.0000       3.029105        82.4261 
  60   0.0000       3.092776        84.1587 
  61   0.0000       3.093769        84.1857 
  62   0.0000       3.105176        84.4961 
  63   0.0000       3.116727        84.8105 
  64   0.0000       3.142383        85.5086 
  65   0.0000       3.157837        85.9291 
  66   0.0000       3.180947        86.5580 
  67   0.0000       3.201167        87.1082 
  68   0.0000       3.349675        91.1493 
  69   0.0000       3.353875        91.2636 
  70   0.0000       3.376887        91.8898 
  71   0.0000       3.412386        92.8558 
  72   0.0000       3.434732        93.4638 
  73   0.0000       3.495058        95.1054 
  74   0.0000       3.523104        95.8685 
  75   0.0000       3.612368        98.2975 
  76   0.0000       3.634685        98.9048 
  77   0.0000       3.704132       100.7945 
  78   0.0000       3.730761       101.5192 
  79   0.0000       3.782592       102.9296 
  80   0.0000       3.920276       106.6761 
  81   0.0000       3.955723       107.6407 
  82   0.0000       4.012514       109.1861 
  83   0.0000       4.013657       109.2172 
  84   0.0000       4.020866       109.4133 
  85   0.0000       4.023088       109.4738 
  86   0.0000       4.130760       112.4037 
  87   0.0000       4.188064       113.9630 
  88   0.0000       4.221423       114.8708 
  89   0.0000       4.296050       116.9015 
  90   0.0000       4.313833       117.3854 
  91   0.0000       4.332155       117.8839 
  92   0.0000       4.360210       118.6473 
  93   0.0000       4.449483       121.0766 
  94   0.0000       4.462050       121.4185 
  95   0.0000       4.556955       124.0010 
  96   0.0000       4.628411       125.9455 
  97   0.0000       4.845141       131.8430 
  98   0.0000       4.899136       133.3123 
  99   0.0000       4.947111       134.6177 
 100   0.0000       5.003084       136.1408 
 101   0.0000       5.040119       137.1486 
 102   0.0000       5.222085       142.1002 
 103   0.0000       5.317040       144.6840 
 104   0.0000       5.387894       146.6121 
 105   0.0000       5.416320       147.3856 
 106   0.0000       5.506064       149.8276 
 107   0.0000       5.515333       150.0799 
 108   0.0000       5.527094       150.3999 
 109   0.0000       5.680650       154.5783 
 110   0.0000       5.747709       156.4031 
 111   0.0000       6.165258       167.7652 
 112   0.0000       6.245505       169.9488 
 113   0.0000       6.343300       172.6100 
 114   0.0000       6.705563       182.4676 
 115   0.0000       6.835160       185.9942 
 116   0.0000      10.425880       283.7026 
 117   0.0000      10.541477       286.8482 
 118   0.0000      11.565548       314.7145 
 119   0.0000      11.607032       315.8434 
 120   0.0000      11.648117       316.9614 
 121   0.0000      11.746510       319.6388 
 122   0.0000      13.036764       354.7484 
 123   0.0000      13.634635       371.0173 
 124   0.0000      14.717371       400.4800 
 125   0.0000      14.964989       407.2181 
 126   0.0000      15.006410       408.3452 
 127   0.0000      15.024245       408.8305 
 128   0.0000      15.317922       416.8218 
 129   0.0000      15.444355       420.2623 
 130   0.0000      15.455074       420.5539 
 131   0.0000      15.536264       422.7632 
 132   0.0000      16.025917       436.0874 
 133   0.0000      16.671148       453.6450 
 134   0.0000      50.238715      1367.0649 
 135   0.0000      50.333051      1369.6320 
 136   0.0000      51.028106      1388.5454 
 137   0.0000      51.076641      1389.8661 
 138   0.0000      51.091093      1390.2593 
 139   0.0000      51.249501      1394.5698 
 140   0.0000      62.196179      1692.4441 
 141   0.0000      62.981271      1713.8075 
Total SCF time: 0 days 0 hours 0 min 3 sec 

Maximum memory used throughout the entire SCF-calculation: 63.2 MB


           ************************************************************
           *        Program running with 5 parallel MPI-processes     *
           *              working on a common directory               *
           ************************************************************

------------------------------------------------------------------------------
                                ORCA  MP2 
------------------------------------------------------------------------------

Freezing NCore=0 chemical core electrons
Initializing SHARK ... done


------------------------------------------------------------------------------
                           ORCA ORBITAL LOCALIZATION
------------------------------------------------------------------------------

Input orbitals are from                  ... c2h4_lw1x_Compound_4.gbw
Output orbitals are to                   ... c2h4_lw1x_Compound_4.loc
Max. number of iterations                ... 128
Localizations seeded randomly            ... off
Convergence tolerance                    ... 1.000e-06
Treshold for strong local MOs            ... 9.500e-01
Treshold for bond MOs                    ... 8.500e-01
Operator                                 ... 0
Orbital range for localization           ... 0 to 7
Localization criterion                   ... FOSTER-BOYS (AUGMENTED HESSIAN)
Doing the dipole integrals     ... o.k.
Initial value of the localization sum :    12.301709
ITERATION   0 : L=   23.7962194180 DL=  1.15e+01 (AVERGE_DL)=    0.6407169576 
ITERATION   1 : L=   25.2309071775 DL=  1.43e+00 (AVERGE_DL)=    0.2263599977 
ITERATION   2 : L=   25.2446674535 DL=  1.38e-02 (AVERGE_DL)=    0.0221684106 
ITERATION   3 : L=   25.2446875479 DL=  2.01e-05 (AVERGE_DL)=    0.0008471469 
ITERATION   4 : L=   25.2446875519 DL=  3.98e-09 (AVERGE_DL)=    0.0000119166 
LOCALIZATION SUM CONVERGED

------------------------------------------------------
AUGMENTED HESSIAN OPTIMIZATION OF FOSTER-BOYS ORBITALS
------------------------------------------------------

Spin operator:           0
Orbital window:          0 to 7
Number of iterations:    128
Gradient tolerance:      1.000e-06
Number of pairs:         28
Davidson threshold:      2000
Diagonalization method:  LAPACK
Iter:    0   L: 25.2446875519   Grad. norm: 7.765071e-05
   *** Likely close to a maximum now. ***
       Augmented Hessian eigenvalues:  1.97e-10 -5.49e+00 -6.81e+00 -6.81e+00 ... 
Iter:    1   L: 25.2446875520   Grad. norm: 1.608226e-11
LOCALIZATION HAS CONVERGED.

Eigenvalues of the Hessian:
  0 -5.489e+00
  1 -6.807e+00
  2 -6.808e+00
  3 -7.132e+00
  4 -7.132e+00
  5 -7.758e+00
  6 -7.759e+00
  7 -9.218e+00
  8 -9.218e+00
  9 -1.815e+01
    ...


------------------------------------------------------------------------------- 
                    LOCALIZED MOLECULAR ORBITAL COMPOSITIONS                   
------------------------------------------------------------------------------- 

The Mulliken populations for each LMO on each atom are computed
The LMO`s will be ordered according to atom index and type
  (A) Strongly localized MO`s have populations of >=0.950 on one atom
  (B) Two center bond orbitals have populations of >=0.850 on two atoms
  (C) Other MO`s are considered to be `delocalized`

FOUND  -   2 strongly local MO`s
       -   6 two center bond MO`s
       -   0 significantly delocalized MO`s

Rather strongly localized orbitals:
MO   1:   1C  -   1.002416
MO   0:   0C  -   1.002416
Bond-like localized orbitals:
MO   7:   5H  -   0.464214  and   1C  -   0.551614
MO   6:   4H  -   0.464212  and   1C  -   0.551615
MO   5:   3H  -   0.464212  and   0C  -   0.551615
MO   4:   2H  -   0.464212  and   0C  -   0.551615
MO   3:   1C  -   0.501210  and   0C  -   0.501209
MO   2:   1C  -   0.501209  and   0C  -   0.501210
Localized MO's were stored in: c2h4_lw1x_Compound_4.loc



Calculating differential overlap integrals ... ok
Threshold for domain construction in prescreening: TCutDOPre = 3.0e-02

--------------------------
ELECTRON PAIR PRESCREENING
--------------------------

Dipole-based pair screening          .... used

   TCutDOij = 1.000000e-05
   TCutPre  = 1.000000e-06
   .... Finished loop over pairs
Total time spent in the prescreening                  ...     0.005 sec
sum of pair energies estimated for screened out pairs ...       0.000000000000 Eh

---------------------------
MAP CONSTRUCTION THRESHOLDS
---------------------------
    TCutMKN     ...     1.0e-03
    TCutDO      ...     5.0e-03
    TCutC(MO)   ...     1.0e-03
    TCutC(PAO)  ...     1.0e-03

--------------------------------
LOCAL RI TRANSFORMATION (IAVPAO)
--------------------------------

Orbital window:       0 to 7
Number of PAOs:     142
Basis functions:    142 (54 shells)
Aux. functions:     658 (190 shells)
Use SHARK:           on

Processing maps (0.0 sec)
Average map sizes:
   Aux shells -> MOs               8.0
   Aux shells -> PAOs            142.0
   MOs        -> AO shells        51.0
   PAOs       -> AO shells        54.0

Calculating integrals (0.1 sec, 5.710 MB)
Sorting integrals (0.0 sec, 5.703 MB)
Total time for the integral transformation: 0.1 sec

----------------------------
Local MP2 Energy Calculation
----------------------------
Number of orbital pairs included:     36
Truncation parameters:
    PAOOverlapThresh    =        1.000e-08
    TCutPNO             =        1.000e-09

Spin component scaling                      .... not used
MP2 energy scaling factor                   .... 1.000

Formation of semicanonical amplitudes.
 10% done.
 20% done.
 30% done.
 40% done.
 50% done.
 60% done.
 70% done.
 80% done.
 90% done.
100% done.

Finished the LMP2 guess in 0.8 sec.

Average number of PAOs per pair        142.0
Average number of nrPAOs per pair      134.0
Average number of PNOs per pair         84.1
Average number of AUX  per pair        600.2

Semicanonical MP2 energy:                   -0.418963766319 Eh
Semicanonical MP2 energy in PNO basis:      -0.418958866555 Eh

Initial amplitudes guess done. Entering DLPNO-MP2 iteration loop:
   Max. no of iterations          ...  100
   Energy convergence tolerance   ...    1.0e-06 Eh
   Residual convergence tolerance ...    5.0e-06
   Fock matrix cutoff             ...    1.0e-05 Eh
   Max # vectors in DIIS          ...  7
   Start iteration of DIIS        ...  0
   Levelshift                     ...  2.000e-01 Eh
   Damping before turning on DIIS ...  5.000e-01
   Damping after turning on DIIS  ...  0.000e+00

                           *** Turning on DIIS ***
Iter=   0:  ECORR= -0.425278855024  DE=   6.3e-03 RMAX=   1.7e-02
Iter=   1:  ECORR= -0.430247446870  DE=   5.0e-03 RMAX=   7.6e-03
Iter=   2:  ECORR= -0.431331184035  DE=   1.1e-03 RMAX=   3.3e-03
Iter=   3:  ECORR= -0.431585112591  DE=   2.5e-04 RMAX=   1.1e-03
Iter=   4:  ECORR= -0.431585298591  DE=   1.9e-07 RMAX=   2.6e-04
Iter=   5:  ECORR= -0.431581077417  DE=   4.2e-06 RMAX=   5.7e-05
Iter=   6:  ECORR= -0.431580433048  DE=   6.4e-07 RMAX=   7.6e-06
Iter=   7:  ECORR= -0.431580552206  DE=   1.2e-07 RMAX=   1.0e-06 => CONVERGED

Finished the DLPNO-MP2 iterations in 3.2 sec.

LMP2 correlation energy (all non-screened pairs)      ...     -0.431580552206 Eh
Semicanonical PNO correction to energy                ...     -0.000004899765 Eh
Sum of pair energies estimated for screened out pairs ...      0.000000000000 Eh
                                                         -----------------------
Total:                                                ...     -0.431585451971 Eh

------------------------------------------------------
 DLPNO-MP2 CORRELATION ENERGY:      -0.431585451971 Eh
------------------------------------------------------

TIMINGS FOR DLPNO-MP2:
Localization                             ...        0.259 sec
Differential overlap integrals           ...        1.342 sec
Prescreening                             ...        0.139 sec
Map setup                                ...        0.001 sec
(ia|v) trafo                             ...        0.142 sec
Semicanonical amplitudes                 ...        0.255 sec
PNO construction                         ...        0.048 sec
DLPNO-MP2 iterations                     ...        3.221 sec
                                             ----------------
Total time                                          6.414 sec


---------------------------------------
MP2 TOTAL ENERGY:      -78.524426858 Eh
---------------------------------------

Maximum memory used throughout the entire MP2-calculation: 109.7 MB

-------------------------   --------------------
FINAL SINGLE POINT ENERGY       -78.524426857520
-------------------------   --------------------


                            ***************************************
                            *     ORCA property calculations      *
                            ***************************************


  WARNING: The energy has been calculated at the MP2 level but the densities
           used in the property calculations are still SCF densities
           MP2 response densities have not been calculated 
           use %mp2 Density relaxed end
           or  %mp2 Density unrelaxed end

                                    ---------------------
                                    Active property flags
                                    ---------------------
   (+) Dipole Moment


------------------------------------------------------------------------------
                       ORCA ELECTRIC PROPERTIES CALCULATION
------------------------------------------------------------------------------

Dipole Moment Calculation                       ... on
Quadrupole Moment Calculation                   ... off
Polarizability Calculation                      ... off
GBWName                                         ... c2h4_lw1x_Compound_4.gbw
Electron density                                ... c2h4_lw1x_Compound_4.scfp
The origin for moment calculation is the CENTER OF MASS  = ( 0.000000,  0.000000  0.000000)

-------------
DIPOLE MOMENT
-------------
                                X             Y             Z
Electronic contribution:     -0.00000      -0.00000      -0.00000
Nuclear contribution   :      0.00000       0.00000       0.00000
                        -----------------------------------------
Total Dipole Moment    :     -0.00000      -0.00000      -0.00000
                        -----------------------------------------
Magnitude (a.u.)       :      0.00000
Magnitude (Debye)      :      0.00000



--------------------
Rotational spectrum 
--------------------
 
Rotational constants in cm-1:     4.934519     1.012758     0.840296 
Rotational constants in MHz : 147933.160668 30361.719210 25191.441779 

 Dipole components along the rotational axes: 
x,y,z [a.u.] :    -0.000000    -0.000000    -0.000000 
x,y,z [Debye]:    -0.000000    -0.000000    -0.000000 

 

Timings for individual modules:

Sum of individual times         ...       21.950 sec (=   0.366 min)
GTO integral calculation        ...        0.837 sec (=   0.014 min)   3.8 %
Relativistic integrals          ...        1.060 sec (=   0.018 min)   4.8 %
SCF iterations                  ...        4.496 sec (=   0.075 min)  20.5 %
MP2 module                      ...       15.558 sec (=   0.259 min)  70.9 %
================================================================================

----- Orbital basis set information -----
Your calculation utilizes the basis: def2-SVP
   F. Weigend and R. Ahlrichs, Phys. Chem. Chem. Phys. 7, 3297 (2005).



----------------------------------------------------------------------------------------------
                                        COMPOUND BLOCK                                        
                                     SUMMARY OF VARIABLES                                     
----------------------------------------------------------------------------------------------

Variable Name                                           Value             Evaluation String
-------------                                           -----             -----------------
HF_DZ                                    |             -78.06604322    |  
EC_DZ                                    |              -0.37781474    |  
CC_DZ                                    |              -0.36790956    |  EC_DZ-T_DZ
T_DZ                                     |              -0.00990518    |  
HF_TZ                                    |             -78.06928569    |  
EC_TZ                                    |              -0.39497849    |  
CC_TZ                                    |              -0.38008317    |  EC_TZ-T_TZ
T_TZ                                     |              -0.01489531    |  
HF_CBS                                   |             -78.06977744    |  HF_TZ-(HF_TZ-HF_DZ)*3^-5/(3^-5-2^-5)
CC_CBS                                   |              -0.38216936    |  CC_TZ-(CC_TZ-CC_DZ)*3^-4.7405/(3^-4.7405-2^-4.7405)
T_CBS                                    |              -0.01864268    |  T_TZ-(T_TZ-T_DZ)*3^-2.0879/(3^-2.0879-2^-2.0879)
MP_FC                                    |             -78.40415647    |  
MP_FU                                    |             -78.52442686    |  
MP_CV                                    |              -0.12027039    |  MP_FU-MP_FC
LW1X                                     |             -78.59085987    |  HF_CBS+CC_CBS+T_CBS+MP_CV
                             ****ORCA TERMINATED NORMALLY****
TOTAL RUN TIME: 0 days 0 hours 4 minutes 4 seconds 642 msec
