
                                 *****************
                                 * O   R   C   A *
                                 *****************

                                            #,                                       
                                            ###                                      
                                            ####                                     
                                            #####                                    
                                            ######                                   
                                           ########,                                 
                                     ,,################,,,,,                         
                               ,,#################################,,                 
                          ,,##########################################,,             
                       ,#########################################, ''#####,          
                    ,#############################################,,   '####,        
                  ,##################################################,,,,####,       
                ,###########''''           ''''###############################       
              ,#####''   ,,,,##########,,,,          '''####'''          '####       
            ,##' ,,,,###########################,,,                        '##       
           ' ,,###''''                  '''############,,,                           
         ,,##''                                '''############,,,,        ,,,,,,###''
      ,#''                                            '''#######################'''  
     '                                                          ''''####''''         
             ,#######,   #######,   ,#######,      ##                                
            ,#'     '#,  ##    ##  ,#'     '#,    #''#        ######   ,####,        
            ##       ##  ##   ,#'  ##            #'  '#       #        #'  '#        
            ##       ##  #######   ##           ,######,      #####,   #    #        
            '#,     ,#'  ##    ##  '#,     ,#' ,#      #,         ##   #,  ,#        
             '#######'   ##     ##  '#######'  #'      '#     #####' # '####'        



                  #######################################################
                  #                        -***-                        #
                  #          Department of theory and spectroscopy      #
                  #    Directorship and core code : Frank Neese         #
                  #        Max Planck Institute fuer Kohlenforschung    #
                  #                Kaiser Wilhelm Platz 1               #
                  #                 D-45470 Muelheim/Ruhr               #
                  #                      Germany                        #
                  #                                                     #
                  #                  All rights reserved                #
                  #                        -***-                        #
                  #######################################################


                         Program Version 5.0.1 -  RELEASE  -


 With contributions from (in alphabetic order):
   Daniel Aravena         : Magnetic Suceptibility
   Michael Atanasov       : Ab Initio Ligand Field Theory (pilot matlab implementation)
   Alexander A. Auer      : GIAO ZORA, VPT2 properties, NMR spectrum
   Ute Becker             : Parallelization
   Giovanni Bistoni       : ED, misc. LED, open-shell LED, HFLD
   Martin Brehm           : Molecular dynamics
   Dmytro Bykov           : SCF Hessian
   Vijay G. Chilkuri      : MRCI spin determinant printing, contributions to CSF-ICE
   Dipayan Datta          : RHF DLPNO-CCSD density
   Achintya Kumar Dutta   : EOM-CC, STEOM-CC
   Dmitry Ganyushin       : Spin-Orbit,Spin-Spin,Magnetic field MRCI
   Miquel Garcia          : C-PCM and meta-GGA Hessian, CC/C-PCM, Gaussian charge scheme
   Yang Guo               : DLPNO-NEVPT2, F12-NEVPT2, CIM, IAO-localization
   Andreas Hansen         : Spin unrestricted coupled pair/coupled cluster methods
   Benjamin Helmich-Paris : MC-RPA, TRAH-SCF, COSX integrals
   Lee Huntington         : MR-EOM, pCC
   Robert Izsak           : Overlap fitted RIJCOSX, COSX-SCS-MP3, EOM
   Marcus Kettner         : VPT2
   Christian Kollmar      : KDIIS, OOCD, Brueckner-CCSD(T), CCSD density, CASPT2, CASPT2-K
   Simone Kossmann        : Meta GGA functionals, TD-DFT gradient, OOMP2, MP2 Hessian
   Martin Krupicka        : Initial AUTO-CI
   Lucas Lang             : DCDCAS
   Marvin Lechner         : AUTO-CI (C++ implementation), FIC-MRCC
   Dagmar Lenk            : GEPOL surface, SMD
   Dimitrios Liakos       : Extrapolation schemes; Compound Job, initial MDCI parallelization
   Dimitrios Manganas     : Further ROCIS development; embedding schemes
   Dimitrios Pantazis     : SARC Basis sets
   Anastasios Papadopoulos: AUTO-CI, single reference methods and gradients
   Taras Petrenko         : DFT Hessian,TD-DFT gradient, ASA, ECA, R-Raman, ABS, FL, XAS/XES, NRVS
   Peter Pinski           : DLPNO-MP2, DLPNO-MP2 Gradient
   Christoph Reimann      : Effective Core Potentials
   Marius Retegan         : Local ZFS, SOC
   Christoph Riplinger    : Optimizer, TS searches, QM/MM, DLPNO-CCSD(T), (RO)-DLPNO pert. Triples
   Tobias Risthaus        : Range-separated hybrids, TD-DFT gradient, RPA, STAB
   Michael Roemelt        : Original ROCIS implementation
   Masaaki Saitow         : Open-shell DLPNO-CCSD energy and density
   Barbara Sandhoefer     : DKH picture change effects
   Avijit Sen             : IP-ROCIS
   Kantharuban Sivalingam : CASSCF convergence, NEVPT2, FIC-MRCI
   Bernardo de Souza      : ESD, SOC TD-DFT
   Georgi Stoychev        : AutoAux, RI-MP2 NMR, DLPNO-MP2 response
   Willem Van den Heuvel  : Paramagnetic NMR
   Boris Wezisla          : Elementary symmetry handling
   Frank Wennmohs         : Technical directorship


 We gratefully acknowledge several colleagues who have allowed us to
 interface, adapt or use parts of their codes:
   Stefan Grimme, W. Hujo, H. Kruse, P. Pracht,  : VdW corrections, initial TS optimization,
                  C. Bannwarth, S. Ehlert          DFT functionals, gCP, sTDA/sTD-DF
   Ed Valeev, F. Pavosevic, A. Kumar             : LibInt (2-el integral package), F12 methods
   Garnet Chan, S. Sharma, J. Yang, R. Olivares  : DMRG
   Ulf Ekstrom                                   : XCFun DFT Library
   Mihaly Kallay                                 : mrcc  (arbitrary order and MRCC methods)
   Jiri Pittner, Ondrej Demel                    : Mk-CCSD
   Frank Weinhold                                : gennbo (NPA and NBO analysis)
   Christopher J. Cramer and Donald G. Truhlar   : smd solvation model
   Lars Goerigk                                  : TD-DFT with DH, B97 family of functionals
   V. Asgeirsson, H. Jonsson                     : NEB implementation
   FAccTs GmbH                                   : IRC, NEB, NEB-TS, DLPNO-Multilevel, CI-OPT
                                                   MM, QMMM, 2- and 3-layer-ONIOM, Crystal-QMMM,
                                                   LR-CPCM, SF, NACMEs, symmetry and pop. for TD-DFT,
                                                   nearIR, NL-DFT gradient (VV10), updates on ESD,
                                                   ML-optimized integration grids
   S Lehtola, MJT Oliveira, MAL Marques          : LibXC Library
   Liviu Ungur et al                             : ANISO software


 Your calculation uses the libint2 library for the computation of 2-el integrals
 For citations please refer to: http://libint.valeyev.net

 Your ORCA version has been built with support for libXC version: 5.1.0
 For citations please refer to: https://tddft.org/programs/libxc/

 This ORCA versions uses:
   CBLAS   interface :  Fast vector & matrix operations
   LAPACKE interface :  Fast linear algebra routines
   SCALAPACK package :  Parallel linear algebra routines
   Shared memory     :  Shared parallel matrices
   BLAS/LAPACK       :  OpenBLAS 0.3.15  USE64BITINT DYNAMIC_ARCH NO_AFFINITY SkylakeX SINGLE_THREADED
        Core in use  :  SkylakeX
   Copyright (c) 2011-2014, The OpenBLAS Project




################################################################################


                                COMPOUND JOB MainJOB 
Basename: c2h4_lw1x-p34_Compound_0

################################################################################

================================================================================
                                       INPUT FILE
================================================================================
NAME = c2h4_lw1x-p34_Compound_0.inp
|  1> %Maxcore 1000
|  2>  %Pal nprocs 5 End
|  3>  
|  4>  * xyz 0 1
|  5>  C        0.000000    0.000000    0.661989 
|  6>  C        0.000000    0.000000   -0.661989 
|  7>  H        0.000000    0.920483    1.231826 
|  8>  H        0.000000   -0.920483    1.231826 
|  9>  H        0.000000    0.920483   -1.231826 
| 10>  H        0.000000   -0.920483   -1.231826 
| 11>  *
| 12>  
| 13> 
| 14>                          ****END OF INPUT****
================================================================================
================================================================================

----- Orbital basis set information -----
Your calculation utilizes the basis: def2-SVP
   F. Weigend and R. Ahlrichs, Phys. Chem. Chem. Phys. 7, 3297 (2005).



################################################################################


                                COMPOUND JOB  1 
Basename: c2h4_lw1x-p34_Compound_1
NOTE: please remember that MaxCore and PAL settings will be ignored.

################################################################################

================================================================================
                                       INPUT FILE
================================================================================
NAME = c2h4_lw1x-p34_Compound_1.inp
|  1>     ! DKH DefGrid3 RIJCOSX TightPNO DLPNO-MP2 MiniPrint NoPop
|  2>     %Basis
|  3>       Basis         "cc-pVTZ-DK"
|  4>       AuxJ          "AutoAux"
|  5>       AuxC          "AutoAux"
|  6>       CABS          "AutoAux"
|  7>       NewGTO     Ga "cc-pVTZ-DK" End
|  8>       NewAuxjGTO Ga "AutoAux" End
|  9>       NewAuxcGTO Ga "AutoAux" End
| 10>       NewCabsGTO Ga "AutoAux" End
| 11>       NewGTO     Ge "cc-pVTZ-DK" End
| 12>       NewAuxjGTO Ge "AutoAux" End
| 13>       NewAuxcGTO Ge "AutoAux" End
| 14>       NewCabsGTO Ge "AutoAux" End
| 15>       NewGTO     As "cc-pVTZ-DK" End
| 16>       NewAuxjGTO As "AutoAux" End
| 17>       NewAuxcGTO As "AutoAux" End
| 18>       NewCabsGTO As "AutoAux" End
| 19>       NewGTO     Se "cc-pVTZ-DK" End
| 20>       NewAuxjGTO Se "AutoAux" End
| 21>       NewAuxcGTO Se "AutoAux" End
| 22>       NewCabsGTO Se "AutoAux" End
| 23>       NewGTO     Br "cc-pVTZ-DK" End
| 24>       NewAuxjGTO Br "AutoAux" End
| 25>       NewAuxcGTO Br "AutoAux" End
| 26>       NewCabsGTO Br "AutoAux" End
| 27>       NewGTO     Kr "cc-pVTZ-DK" End
| 28>       NewAuxjGTO Kr "AutoAux" End
| 29>       NewAuxcGTO Kr "AutoAux" End
| 30>       NewCabsGTO Kr "AutoAux" End
| 31>       NewGTO     In "cc-pVTZ-DK" End
| 32>       NewAuxjGTO In "AutoAux" End
| 33>       NewAuxcGTO In "AutoAux" End
| 34>       NewCabsGTO In "AutoAux" End
| 35>       NewGTO     Sn "cc-pVTZ-DK" End
| 36>       NewAuxjGTO Sn "AutoAux" End
| 37>       NewAuxcGTO Sn "AutoAux" End
| 38>       NewCabsGTO Sn "AutoAux" End
| 39>       NewGTO     Sb "cc-pVTZ-DK" End
| 40>       NewAuxjGTO Sb "AutoAux" End
| 41>       NewAuxcGTO Sb "AutoAux" End
| 42>       NewCabsGTO Sb "AutoAux" End
| 43>       NewGTO     Te "cc-pVTZ-DK" End
| 44>       NewAuxjGTO Te "AutoAux" End
| 45>       NewAuxcGTO Te "AutoAux" End
| 46>       NewCabsGTO Te "AutoAux" End
| 47>       NewGTO     I  "cc-pVTZ-DK" End
| 48>       NewAuxjGTO I  "AutoAux" End
| 49>       NewAuxcGTO I  "AutoAux" End
| 50>       NewCabsGTO I  "AutoAux" End
| 51>       NewGTO     Xe "cc-pVTZ-DK" End
| 52>       NewAuxjGTO Xe "AutoAux" End
| 53>       NewAuxcGTO Xe "AutoAux" End
| 54>       NewCabsGTO Xe "AutoAux" End
| 55>     End
| 56> 
| 57>                          ****END OF INPUT****
================================================================================
Warning! AutoAux has not been tested for CABS - use at your own risk!
================================================================================

----- Orbital basis set information -----
Your calculation utilizes the basis: cc-pVTZ-DK 
    H-He, B-Ne : Obtained from the ccRepo (grant-hill.group.shef.ac.uk/ccrepo) Feb. 2017
                 W. A. de Jong, R. J. Harrison, D. A. Dixon, J. Chem. Phys. 114, 48 (2001)
  Li-Be, Na-Mg : Obtained from the Peterson Research Group Website (tyr0.chem.wsu.edu/~kipeters) Feb. 2017
                 B. P. Prascher, D. E. Woon, K. A. Peterson, T. H. Dunning, Jr., A. K. Wilson, Theor. Chem. Acc. 128, 69 (2011)
  Al-Ar, Ga-Kr : Obtained from the EMSL Basis Set Exchange (bse.pnl.gov) Feb. 2017
                 W. A. de Jong, R. J. Harrison, D. A. Dixon, J. Chem. Phys. 114, 48 (2001)
         Sc-Zn : Obtained from the ccRepo (grant-hill.group.shef.ac.uk/ccrepo) Feb. 2017
                 N. B. Balabanov, K. A. Peterson, J. Chem. Phys. 123, 064107 (2005)
                 N. B. Balabanov, K. A. Peterson, J. Chem. Phys. 125, 074110 (2006)
          Y-Pd : Obtained from the ccRepo (grant-hill.group.shef.ac.uk/ccrepo) Feb. 2017
                 K. A. Peterson, D. Figgen, M. Dolg, H. Stoll, J. Chem. Phys. 126, 124101 (2007)
  Ag-Cd, Au-Hg : Obtained from the ccRepo (grant-hill.group.shef.ac.uk/ccrepo) Feb. 2017
                 K. A. Peterson, C. Puzzarini, Theor. Chem. Acc. 114, 283 (2005)
  In-Xe, Tl-Rn : Obtained from the ccRepo (grant-hill.group.shef.ac.uk/ccrepo) Feb. 2017
                 D. H. Bross, K. A. Peterson, Theor. Chem. Acc. 133, 1434 (2014)
         Hf-Pt : Obtained from the ccRepo (grant-hill.group.shef.ac.uk/ccrepo) Feb. 2017
                 D. Figgen, K. A. Peterson, M. Dolg, H. Stoll, J. Chem. Phys. 130, 164108 (2009)

The basis set includes element-specific modifications.

----- AuxJ basis set information -----
Your calculation utilizes the AutoAux generation procedure.
  G. L. Stoychev, A. A. Auer, F. Neese, J. Chem. Theory Comput. 13, 554 (2017)

The basis set includes element-specific modifications.

----- AuxC basis set information -----
Your calculation utilizes the AutoAux generation procedure.
  G. L. Stoychev, A. A. Auer, F. Neese, J. Chem. Theory Comput. 13, 554 (2017)

The basis set includes element-specific modifications.

----- CABS information -----
Your calculation utilizes the AutoAux generation procedure.
  G. L. Stoychev, A. A. Auer, F. Neese, J. Chem. Theory Comput. 13, 554 (2017)

The basis set includes element-specific modifications.


                    <<< The CABS basis set will be decontracted >>>

================================================================================
                                        WARNINGS
                       Please study these warnings very carefully!
================================================================================


WARNING: No MP2 level density has been requested!
         To caclulate MP2 level properties use
         %mp2 Density relaxed end
         or
         %mp2 Density unrelaxed end

WARNING: Post HF methods need fully converged wavefunctions
  ===> : Setting SCFConvForced true
         You can overwrite this default with %scf ConvForced false 


INFO   : the flag for use of the SHARK integral package has been found!


                       ****************************
                       * Single Point Calculation *
                       ****************************

---------------------------------
CARTESIAN COORDINATES (ANGSTROEM)
---------------------------------
  C      0.000000    0.000000    0.661989
  C      0.000000    0.000000   -0.661989
  H      0.000000    0.920483    1.231826
  H      0.000000   -0.920483    1.231826
  H      0.000000    0.920483   -1.231826
  H      0.000000   -0.920483   -1.231826

----------------------------
CARTESIAN COORDINATES (A.U.)
----------------------------
  NO LB      ZA    FRAG     MASS         X           Y           Z
   0 C     6.0000    0    12.011    0.000000    0.000000    1.250978
   1 C     6.0000    0    12.011    0.000000    0.000000   -1.250978
   2 H     1.0000    0     1.008    0.000000    1.739461    2.327814
   3 H     1.0000    0     1.008    0.000000   -1.739461    2.327814
   4 H     1.0000    0     1.008    0.000000    1.739461   -2.327814
   5 H     1.0000    0     1.008    0.000000   -1.739461   -2.327814



           ************************************************************
           *        Program running with 5 parallel MPI-processes     *
           *              working on a common directory               *
           ************************************************************
------------------------------------------------------------------------------
                   ___                                                        
                  /   \      - P O W E R E D   B Y -                         
                 /     \                                                     
                 |  |  |   _    _      __       _____    __    __             
                 |  |  |  | |  | |    /  \     |  _  \  |  |  /  |          
                  \  \/   | |  | |   /    \    | | | |  |  | /  /          
                 / \  \   | |__| |  /  /\  \   | |_| |  |  |/  /          
                |  |  |   |  __  | /  /__\  \  |    /   |      \           
                |  |  |   | |  | | |   __   |  |    \   |  |\   \          
                \     /   | |  | | |  |  |  |  | |\  \  |  | \   \       
                 \___/    |_|  |_| |__|  |__|  |_| \__\ |__|  \__/        
                                                                              
                      - O R C A' S   B I G   F R I E N D -                    
                                      &                                       
                       - I N T E G R A L  F E E D E R -                       
                                                                              
 v1 FN, 2020, v2 2021                                                         
------------------------------------------------------------------------------


Reading SHARK input file c2h4_lw1x-p34_Compound_1.SHARKINP.tmp ... ok
----------------------
SHARK INTEGRAL PACKAGE
----------------------

Number of atoms                             ...      6
Number of basis functions                   ...    116
Number of shells                            ...     44
Maximum angular momentum                    ...      3
Integral batch strategy                     ... SHARK/LIBINT Hybrid
RI-J (if used) integral strategy            ... SPLIT-RIJ (Revised 2003 algorithm where possible)
Printlevel                                  ...      1
Contraction scheme used                     ... SEGMENTED contraction
Coulomb Range Separation                    ... NOT USED
Exchange Range Separation                   ... NOT USED
Finite Nucleus Model                        ... NOT USED
Auxiliary Coulomb fitting basis             ... AVAILABLE
   # of basis functions in Aux-J            ...    526
   # of shells in Aux-J                     ...    166
   Maximum angular momentum in Aux-J        ...      4
Auxiliary J/K fitting basis                 ... NOT available
Auxiliary Correlation fitting basis         ... AVAILABLE
   # of basis functions in Aux-C            ...    526
   # of shells in Aux-C                     ...    166
   Maximum angular momentum in Aux-C        ...      4
Auxiliary 'external' fitting basis          ... NOT available
Integral threshold                          ...     1.000000e-10
Primitive cut-off                           ...     1.000000e-11
Primitive pair pre-selection threshold      ...     1.000000e-11

Calculating pre-screening integrals         ... done (  0.0 sec) Dimension = 44
Organizing shell pair data                  ... done (  0.0 sec)
Shell pair information
Total number of shell pairs                 ...       990
Shell pairs after pre-screening             ...       990
Total number of primitive shell pairs       ...      3700
Primitive shell pairs kept                  ...      3300
          la=0 lb=0:    210 shell pairs
          la=1 lb=0:    280 shell pairs
          la=1 lb=1:    105 shell pairs
          la=2 lb=0:    160 shell pairs
          la=2 lb=1:    112 shell pairs
          la=2 lb=2:     36 shell pairs
          la=3 lb=0:     40 shell pairs
          la=3 lb=1:     28 shell pairs
          la=3 lb=2:     16 shell pairs
          la=3 lb=3:      3 shell pairs

Calculating one electron integrals          ... done (  0.0 sec)
Calculating RI/J V-Matrix + Cholesky decomp.... done (  0.1 sec)
Calculating RI/C V-Matrix + Cholesky decomp.... done (  0.1 sec)
Calculating Nuclear repulsion               ... done (  0.0 sec) ENN=     33.500164572333 Eh

SHARK setup successfully completed in   0.3 seconds

Maximum memory used throughout the entire GTOINT-calculation: 17.6 MB


           ************************************************************
           *        Program running with 5 parallel MPI-processes     *
           *              working on a common directory               *
           ************************************************************
------------------------------------------------------------------------------
                          ORCA RELATIVISTIC HAMILTONIAN
------------------------------------------------------------------------------

Relativistic Method            ... DKH
Order of DKH treatment         ...   2
Treatment of potential         ... V(e,N)
Eps parameter for DKH          ...   0.00000000010000
Nucleus model                  ... Point Nucleus
Speed of light used            ... 137.03598950000000


            ************************************************
            *        DOUGLAS-KROLL-HESS HAMILTONIAN        *
            *   Programmed by FN according to literature   *
            *        procedures. Special thanks to         *
            *       B.A. Hess, M. Reiher and A. Wolf       *
            *     University Erlangen-Nuernberg/Bonn       *
            ************************************************

Uncontracting the basis (second version)       ... done
Basis set overlap                              ... done
Number of contracted basis functions           ...  116
Number of uncontracted basis functions         ...  148
Initializing the DKH file                      ... done
Calculating the relativistic integrals         ... done
Storing DKH matrices                           ... done
Code used for DKH trafo                        ... ORCA
Computing the DKH transformation               ... done
Storing the transformation variables           ... done
Transforming V and pVp to p**2 space           ... done
First transformation of V and pVp              ... done
Second transformation of Veff                  ... done
Adding kinetic energy                          ... done
Back transformation of Veff to r-space         ... done
Recovering DKH matrices                        ... done
Recontracting the H-matrix (second version)    ... done
Computing the DKH correction to the H-matrix   ... done
Reading the original H-matrix                  ... done
Adding DKH correction to the H-matrix          ... done
Storing the new modified H-matrix              ... done

Maximum memory used throughout the entire REL-calculation: 46.3 MB


           ************************************************************
           *        Program running with 5 parallel MPI-processes     *
           *              working on a common directory               *
           ************************************************************

Diagonalization of the overlap matrix:
Smallest eigenvalue                        ... 7.006e-04
Time for diagonalization                   ...    0.003 sec
Threshold for overlap eigenvalues          ... 1.000e-08
Number of eigenvalues below threshold      ... 0
Time for construction of square roots      ...    0.006 sec
Total time needed                          ...    0.009 sec

Time for model grid setup =    0.036 sec

Loading DKH relativistic densities                 ... done
Calculating cut-offs                               ... done
Initializing the effective Hamiltonian             ... done
Setting up the integral package (SHARK)            ... done
Starting the Coulomb interaction                   ... done (   0.0 sec)
Reading the grid                                   ... done
Mapping shells                                     ... done
Starting the XC term evaluation                    ... done (   0.0 sec)
Transforming the Hamiltonian                       ... done (   0.0 sec)
Diagonalizing the Hamiltonian                      ... done (   0.0 sec)
Back transforming the eigenvectors                 ... done (   0.0 sec)
Now organizing SCF variables                       ... done
--------------------
COSX GRID GENERATION
--------------------

GRIDX 1
-------
General Integration Accuracy     IntAcc      ... 4.020
Radial Grid Type                 RadialGrid  ... OptM3 with GC (2021)
Angular Grid (max. ang.)         AngularGrid ... 2 (Lebedev-110)
Angular grid pruning method      GridPruning ... 4 (adaptive)
Weight generation scheme         WeightScheme... Becke
Basis function cutoff            BFCut       ... 1.0000e-10
Integration weight cutoff        WCut        ... 1.0000e-14
Angular grids for H and He will be reduced by one unit
Partially contracted basis set               ... on
Rotationally invariant grid construction     ... off

Total number of grid points                  ...     6900
Total number of batches                      ...      111
Average number of points per batch           ...       62
Average number of grid points per atom       ...     1150
UseSFitting                                  ... on

GRIDX 2
-------
General Integration Accuracy     IntAcc      ... 4.338
Radial Grid Type                 RadialGrid  ... OptM3 with GC (2021)
Angular Grid (max. ang.)         AngularGrid ... 3 (Lebedev-194)
Angular grid pruning method      GridPruning ... 4 (adaptive)
Weight generation scheme         WeightScheme... Becke
Basis function cutoff            BFCut       ... 1.0000e-10
Integration weight cutoff        WCut        ... 1.0000e-14
Angular grids for H and He will be reduced by one unit
Partially contracted basis set               ... on
Rotationally invariant grid construction     ... off

Total number of grid points                  ...    15208
Total number of batches                      ...      240
Average number of points per batch           ...       63
Average number of grid points per atom       ...     2535
UseSFitting                                  ... on

GRIDX 3
-------
General Integration Accuracy     IntAcc      ... 4.871
Radial Grid Type                 RadialGrid  ... OptM3 with GC (2021)
Angular Grid (max. ang.)         AngularGrid ... 4 (Lebedev-302)
Angular grid pruning method      GridPruning ... 4 (adaptive)
Weight generation scheme         WeightScheme... Becke
Basis function cutoff            BFCut       ... 1.0000e-10
Integration weight cutoff        WCut        ... 1.0000e-14
Angular grids for H and He will be reduced by one unit
Partially contracted basis set               ... on
Rotationally invariant grid construction     ... off

Total number of grid points                  ...    30622
Total number of batches                      ...      482
Average number of points per batch           ...       63
Average number of grid points per atom       ...     5104
UseSFitting                                  ... on

Time for X-Grid setup             =    0.361 sec

 re-compute Schwartz prescreening matrix in partically contracted basis (1) ...done (   0.086 sec)
--------------
SCF ITERATIONS
--------------
ITER       Energy         Delta-E        Max-DP      RMS-DP      [F,P]     Damp
               ***  Starting incremental Fock matrix formation  ***
  0    -77.9586681106   0.000000000000 0.02574367  0.00088742  0.2333890 0.7000
  1    -78.0059512751  -0.047283164470 0.01921242  0.00070094  0.1542373 0.7000
                               ***Turning on DIIS***
  2    -78.0349523255  -0.029001050410 0.04719830  0.00155199  0.0940115 0.0000
  3    -77.8985790150   0.136373310481 0.01259983  0.00036887  0.0306617 0.0000
  4    -78.0728359712  -0.174256956168 0.00273810  0.00008967  0.0047319 0.0000
                      *** Initiating the SOSCF procedure ***
                           *** Shutting down DIIS ***
                      *** Re-Reading the Fockian *** 
                      *** Removing any level shift *** 
ITER      Energy       Delta-E        Grad      Rot      Max-DP    RMS-DP
  5    -78.08979628  -0.0169603072  0.001597  0.001597  0.000706  0.000034
               *** Restarting incremental Fock matrix formation ***
  6    -78.09342241  -0.0036261272  0.000425  0.000441  0.000271  0.000014
  7    -78.09342353  -0.0000011267  0.000108  0.000181  0.000138  0.000006
                 **** Energy Check signals convergence ****
              ***Rediagonalizing the Fockian in SOSCF/NRSCF***

               *****************************************************
               *                     SUCCESS                       *
               *           SCF CONVERGED AFTER   8 CYCLES          *
               *****************************************************

Old exchange energy                            =    -11.763865865 Eh
New exchange energy                            =    -11.763885781 Eh
Exchange energy change after final integration =     -0.000019916 Eh
Total energy after final integration           =    -78.093443583 Eh
Final COS-X integration done in                =     0.644 sec
Total Energy       :          -78.09344358 Eh           -2125.03063 eV
  Last Energy change         ...   -1.3421e-07  Tolerance :   1.0000e-06
  Last MAX-Density change    ...    6.6613e-16  Tolerance :   1.0000e-05
             **** THE GBW FILE WAS UPDATED (c2h4_lw1x-p34_Compound_1.gbw) ****
             **** DENSITY c2h4_lw1x-p34_Compound_1.scfp WAS UPDATED ****
             **** ENERGY FILE WAS UPDATED (c2h4_lw1x-p34_Compound_1.en.tmp) ****
             **** THE GBW FILE WAS UPDATED (c2h4_lw1x-p34_Compound_1.gbw) ****
             **** DENSITY c2h4_lw1x-p34_Compound_1.scfp WAS UPDATED ****
----------------
ORBITAL ENERGIES
----------------

  NO   OCC          E(Eh)            E(eV) 
   0   2.0000     -11.232630      -305.6554 
   1   2.0000     -11.230836      -305.6066 
   2   2.0000      -1.035416       -28.1751 
   3   2.0000      -0.791678       -21.5426 
   4   2.0000      -0.642122       -17.4730 
   5   2.0000      -0.589096       -16.0301 
   6   2.0000      -0.504159       -13.7189 
   7   2.0000      -0.378376       -10.2961 
   8   0.0000       0.153787         4.1848 
   9   0.0000       0.159249         4.3334 
  10   0.0000       0.186987         5.0882 
  11   0.0000       0.190769         5.1911 
  12   0.0000       0.241605         6.5744 
  13   0.0000       0.369101        10.0438 
  14   0.0000       0.373889        10.1740 
  15   0.0000       0.440381        11.9834 
  16   0.0000       0.445676        12.1275 
  17   0.0000       0.486255        13.2317 
  18   0.0000       0.566368        15.4117 
  19   0.0000       0.590934        16.0801 
  20   0.0000       0.593717        16.1559 
  21   0.0000       0.636388        17.3170 
  22   0.0000       0.638310        17.3693 
  23   0.0000       0.678868        18.4729 
  24   0.0000       0.695255        18.9189 
  25   0.0000       0.798956        21.7407 
  26   0.0000       0.830498        22.5990 
  27   0.0000       0.851374        23.1671 
  28   0.0000       0.877091        23.8669 
  29   0.0000       0.988118        26.8880 
  30   0.0000       1.085665        29.5424 
  31   0.0000       1.102261        29.9940 
  32   0.0000       1.182749        32.1842 
  33   0.0000       1.211685        32.9716 
  34   0.0000       1.219249        33.1775 
  35   0.0000       1.233846        33.5747 
  36   0.0000       1.299047        35.3489 
  37   0.0000       1.321407        35.9573 
  38   0.0000       1.379885        37.5486 
  39   0.0000       1.472767        40.0760 
  40   0.0000       1.484696        40.4006 
  41   0.0000       1.551269        42.2122 
  42   0.0000       1.586393        43.1679 
  43   0.0000       1.605753        43.6948 
  44   0.0000       1.613694        43.9109 
  45   0.0000       1.808855        49.2215 
  46   0.0000       1.827008        49.7154 
  47   0.0000       1.893512        51.5251 
  48   0.0000       2.314890        62.9914 
  49   0.0000       2.365380        64.3653 
  50   0.0000       2.554339        69.5071 
  51   0.0000       2.557151        69.5836 
  52   0.0000       2.614314        71.1391 
  53   0.0000       2.645211        71.9799 
  54   0.0000       2.718642        73.9780 
  55   0.0000       2.741932        74.6118 
  56   0.0000       2.896327        78.8131 
  57   0.0000       2.946601        80.1811 
  58   0.0000       3.077784        83.7508 
  59   0.0000       3.096165        84.2509 
  60   0.0000       3.096800        84.2682 
  61   0.0000       3.105590        84.5074 
  62   0.0000       3.120277        84.9071 
  63   0.0000       3.142724        85.5179 
  64   0.0000       3.163390        86.0802 
  65   0.0000       3.202743        87.1511 
  66   0.0000       3.234192        88.0068 
  67   0.0000       3.354472        91.2798 
  68   0.0000       3.406693        92.7008 
  69   0.0000       3.412140        92.8491 
  70   0.0000       3.420153        93.0671 
  71   0.0000       3.484847        94.8275 
  72   0.0000       3.496987        95.1578 
  73   0.0000       3.523404        95.8767 
  74   0.0000       3.586909        97.6048 
  75   0.0000       3.612420        98.2989 
  76   0.0000       3.729078       101.4734 
  77   0.0000       3.790815       103.1533 
  78   0.0000       3.920949       106.6945 
  79   0.0000       3.933115       107.0255 
  80   0.0000       3.947304       107.4116 
  81   0.0000       4.016677       109.2993 
  82   0.0000       4.022218       109.4501 
  83   0.0000       4.048957       110.1777 
  84   0.0000       4.130855       112.4063 
  85   0.0000       4.189483       114.0016 
  86   0.0000       4.223270       114.9210 
  87   0.0000       4.229344       115.0863 
  88   0.0000       4.281363       116.5018 
  89   0.0000       4.332942       117.9053 
  90   0.0000       4.360674       118.6600 
  91   0.0000       4.401266       119.7645 
  92   0.0000       4.451280       121.1255 
  93   0.0000       4.557182       124.0072 
  94   0.0000       4.683136       127.4346 
  95   0.0000       4.860745       132.2676 
  96   0.0000       4.877168       132.7145 
  97   0.0000       4.913395       133.7003 
  98   0.0000       4.957125       134.8902 
  99   0.0000       5.016394       136.5030 
 100   0.0000       5.111973       139.1039 
 101   0.0000       5.220744       142.0637 
 102   0.0000       5.223587       142.1410 
 103   0.0000       5.374612       146.2506 
 104   0.0000       5.396854       146.8559 
 105   0.0000       5.439391       148.0133 
 106   0.0000       5.528016       150.4250 
 107   0.0000       5.542309       150.8139 
 108   0.0000       5.653591       153.8420 
 109   0.0000       5.774490       157.1319 
 110   0.0000       6.263074       170.4269 
 111   0.0000       6.356298       172.9637 
 112   0.0000       6.411659       174.4701 
 113   0.0000       6.840356       186.1356 
 114   0.0000      11.781148       320.5813 
 115   0.0000      14.851095       404.1188 
Total SCF time: 0 days 0 hours 0 min 5 sec 

Maximum memory used throughout the entire SCF-calculation: 61.9 MB


           ************************************************************
           *        Program running with 5 parallel MPI-processes     *
           *              working on a common directory               *
           ************************************************************

------------------------------------------------------------------------------
                                ORCA  MP2 
------------------------------------------------------------------------------

Freezing NCore=4 chemical core electrons
Initializing SHARK ... done


------------------------------------------------------------------------------
                           ORCA ORBITAL LOCALIZATION
------------------------------------------------------------------------------

Input orbitals are from                  ... c2h4_lw1x-p34_Compound_1.gbw
Output orbitals are to                   ... c2h4_lw1x-p34_Compound_1.loc
Max. number of iterations                ... 128
Localizations seeded randomly            ... off
Convergence tolerance                    ... 1.000e-06
Treshold for strong local MOs            ... 9.500e-01
Treshold for bond MOs                    ... 8.500e-01
Operator                                 ... 0
Orbital range for localization           ... 2 to 7
Localization criterion                   ... FOSTER-BOYS (AUGMENTED HESSIAN)
Doing the dipole integrals     ... o.k.
Initial value of the localization sum :     9.184844
ITERATION   0 : L=   20.7398479187 DL=  1.16e+01 (AVERGE_DL)=    0.8776865135 
ITERATION   1 : L=   22.0652016740 DL=  1.33e+00 (AVERGE_DL)=    0.2972489143 
ITERATION   2 : L=   22.0781833089 DL=  1.30e-02 (AVERGE_DL)=    0.0294184011 
ITERATION   3 : L=   22.0782021303 DL=  1.88e-05 (AVERGE_DL)=    0.0011201599 
ITERATION   4 : L=   22.0782021314 DL=  1.11e-09 (AVERGE_DL)=    0.0000086068 
LOCALIZATION SUM CONVERGED

------------------------------------------------------
AUGMENTED HESSIAN OPTIMIZATION OF FOSTER-BOYS ORBITALS
------------------------------------------------------

Spin operator:           0
Orbital window:          2 to 7
Number of iterations:    128
Gradient tolerance:      1.000e-06
Number of pairs:         15
Davidson threshold:      2000
Diagonalization method:  LAPACK
Iter:    0   L: 22.0782021314   Grad. norm: 1.687746e-04
   *** Likely close to a maximum now. ***
       Augmented Hessian eigenvalues:  4.39e-10 -5.44e+00 -1.81e+01 -1.88e+01 ... 
Iter:    1   L: 22.0782021316   Grad. norm: 3.107183e-11
LOCALIZATION HAS CONVERGED.

Eigenvalues of the Hessian:
  0 -5.441e+00
  1 -1.813e+01
  2 -1.877e+01
  3 -1.980e+01
  4 -2.080e+01
  5 -2.249e+01
  6 -2.258e+01
  7 -2.345e+01
  8 -2.388e+01
  9 -2.389e+01
    ...


------------------------------------------------------------------------------- 
                    LOCALIZED MOLECULAR ORBITAL COMPOSITIONS                   
------------------------------------------------------------------------------- 

The Mulliken populations for each LMO on each atom are computed
The LMO`s will be ordered according to atom index and type
  (A) Strongly localized MO`s have populations of >=0.950 on one atom
  (B) Two center bond orbitals have populations of >=0.850 on two atoms
  (C) Other MO`s are considered to be `delocalized`

FOUND  -   0 strongly local MO`s
       -   6 two center bond MO`s
       -   0 significantly delocalized MO`s

Bond-like localized orbitals:
MO   7:   5H  -   0.444154  and   1C  -   0.579489
MO   6:   4H  -   0.444153  and   1C  -   0.579490
MO   5:   3H  -   0.444153  and   0C  -   0.579490
MO   4:   2H  -   0.444154  and   0C  -   0.579489
MO   3:   1C  -   0.506831  and   0C  -   0.506831
MO   2:   1C  -   0.506831  and   0C  -   0.506831
Localized MO's were stored in: c2h4_lw1x-p34_Compound_1.loc



Calculating differential overlap integrals ... ok
Threshold for domain construction in prescreening: TCutDOPre = 3.0e-02

--------------------------
ELECTRON PAIR PRESCREENING
--------------------------

Dipole-based pair screening          .... used

   TCutDOij = 1.000000e-05
   TCutPre  = 1.000000e-06
   .... Finished loop over pairs
Total time spent in the prescreening                  ...     0.053 sec
sum of pair energies estimated for screened out pairs ...       0.000000000000 Eh

---------------------------
MAP CONSTRUCTION THRESHOLDS
---------------------------
    TCutMKN     ...     1.0e-03
    TCutDO      ...     5.0e-03
    TCutC(MO)   ...     1.0e-03
    TCutC(PAO)  ...     1.0e-03

--------------------------------
LOCAL RI TRANSFORMATION (IAVPAO)
--------------------------------

Orbital window:       2 to 7
Number of PAOs:     116
Basis functions:    116 (44 shells)
Aux. functions:     526 (166 shells)
Use SHARK:           on

Processing maps (0.0 sec)
Average map sizes:
   Aux shells -> MOs               6.0
   Aux shells -> PAOs            116.0
   MOs        -> AO shells        44.0
   PAOs       -> AO shells        44.0

Calculating integrals (0.1 sec, 2.799 MB)
Sorting integrals (0.0 sec, 2.793 MB)
Total time for the integral transformation: 0.1 sec

----------------------------
Local MP2 Energy Calculation
----------------------------
Number of orbital pairs included:     21
Truncation parameters:
    PAOOverlapThresh    =        1.000e-08
    TCutPNO             =        1.000e-09

Spin component scaling                      .... not used
MP2 energy scaling factor                   .... 1.000

Formation of semicanonical amplitudes.
 10% done.
 20% done.
 30% done.
 40% done.
 50% done.
 60% done.
 70% done.
 80% done.
 90% done.
100% done.

Finished the LMP2 guess in 0.2 sec.

Average number of PAOs per pair        116.0
Average number of nrPAOs per pair      108.0
Average number of PNOs per pair         97.1
Average number of AUX  per pair        526.0

Semicanonical MP2 energy:                   -0.325203905543 Eh
Semicanonical MP2 energy in PNO basis:      -0.325203277719 Eh

Initial amplitudes guess done. Entering DLPNO-MP2 iteration loop:
   Max. no of iterations          ...  100
   Energy convergence tolerance   ...    1.0e-06 Eh
   Residual convergence tolerance ...    5.0e-06
   Fock matrix cutoff             ...    1.0e-05 Eh
   Max # vectors in DIIS          ...  7
   Start iteration of DIIS        ...  0
   Levelshift                     ...  2.000e-01 Eh
   Damping before turning on DIIS ...  5.000e-01
   Damping after turning on DIIS  ...  0.000e+00

                           *** Turning on DIIS ***
Iter=   0:  ECORR= -0.330758409167  DE=   5.6e-03 RMAX=   1.6e-02
Iter=   1:  ECORR= -0.334365495136  DE=   3.6e-03 RMAX=   6.5e-03
Iter=   2:  ECORR= -0.335131766442  DE=   7.7e-04 RMAX=   2.5e-03
Iter=   3:  ECORR= -0.335201412657  DE=   7.0e-05 RMAX=   6.2e-04
Iter=   4:  ECORR= -0.335189945597  DE=   1.1e-05 RMAX=   1.3e-04
Iter=   5:  ECORR= -0.335189070011  DE=   8.8e-07 RMAX=   2.2e-05
Iter=   6:  ECORR= -0.335189213520  DE=   1.4e-07 RMAX=   2.6e-06 => CONVERGED

Finished the DLPNO-MP2 iterations in 1.3 sec.

LMP2 correlation energy (all non-screened pairs)      ...     -0.335189213520 Eh
Semicanonical PNO correction to energy                ...     -0.000000627825 Eh
Sum of pair energies estimated for screened out pairs ...      0.000000000000 Eh
                                                         -----------------------
Total:                                                ...     -0.335189841345 Eh

------------------------------------------------------
 DLPNO-MP2 CORRELATION ENERGY:      -0.335189841345 Eh
------------------------------------------------------

TIMINGS FOR DLPNO-MP2:
Localization                             ...        0.221 sec
Differential overlap integrals           ...        0.718 sec
Prescreening                             ...        0.196 sec
Map setup                                ...        0.001 sec
(ia|v) trafo                             ...        0.104 sec
Semicanonical amplitudes                 ...        0.092 sec
PNO construction                         ...        0.040 sec
DLPNO-MP2 iterations                     ...        1.335 sec
                                             ----------------
Total time                                          3.283 sec


---------------------------------------
MP2 TOTAL ENERGY:      -78.428633424 Eh
---------------------------------------

Maximum memory used throughout the entire MP2-calculation: 108.3 MB

-------------------------   --------------------
FINAL SINGLE POINT ENERGY       -78.428633424127
-------------------------   --------------------


                            ***************************************
                            *     ORCA property calculations      *
                            ***************************************


  WARNING: The energy has been calculated at the MP2 level but the densities
           used in the property calculations are still SCF densities
           MP2 response densities have not been calculated 
           use %mp2 Density relaxed end
           or  %mp2 Density unrelaxed end

                                    ---------------------
                                    Active property flags
                                    ---------------------
   (+) Dipole Moment


------------------------------------------------------------------------------
                       ORCA ELECTRIC PROPERTIES CALCULATION
------------------------------------------------------------------------------

Dipole Moment Calculation                       ... on
Quadrupole Moment Calculation                   ... off
Polarizability Calculation                      ... off
GBWName                                         ... c2h4_lw1x-p34_Compound_1.gbw
Electron density                                ... c2h4_lw1x-p34_Compound_1.scfp
The origin for moment calculation is the CENTER OF MASS  = ( 0.000000,  0.000000  0.000000)

-------------
DIPOLE MOMENT
-------------
                                X             Y             Z
Electronic contribution:     -0.00000      -0.00000       0.00000
Nuclear contribution   :      0.00000       0.00000       0.00000
                        -----------------------------------------
Total Dipole Moment    :     -0.00000      -0.00000       0.00000
                        -----------------------------------------
Magnitude (a.u.)       :      0.00000
Magnitude (Debye)      :      0.00000



--------------------
Rotational spectrum 
--------------------
 
Rotational constants in cm-1:     4.934519     1.012758     0.840296 
Rotational constants in MHz : 147933.160668 30361.719210 25191.441779 

 Dipole components along the rotational axes: 
x,y,z [a.u.] :     0.000000    -0.000000    -0.000000 
x,y,z [Debye]:     0.000000    -0.000000    -0.000000 

 

Timings for individual modules:

Sum of individual times         ...       14.643 sec (=   0.244 min)
GTO integral calculation        ...        2.826 sec (=   0.047 min)  19.3 %
Relativistic integrals          ...        1.860 sec (=   0.031 min)  12.7 %
SCF iterations                  ...        6.055 sec (=   0.101 min)  41.4 %
MP2 module                      ...        3.901 sec (=   0.065 min)  26.6 %


################################################################################


                                COMPOUND JOB  2 
Basename: c2h4_lw1x-p34_Compound_2
NOTE: please remember that MaxCore and PAL settings will be ignored.

################################################################################

================================================================================
                                       INPUT FILE
================================================================================
NAME = c2h4_lw1x-p34_Compound_2.inp
|  1>     ! DefGrid3 RIJCOSX TightPNO DLPNO-MP2 MiniPrint NoPop
|  2>     %Basis
|  3>       Basis         "cc-pVTZ"
|  4>       AuxJ          "AutoAux"
|  5>       AuxC          "AutoAux"
|  6>       CABS          "AutoAux"
|  7>       NewECP     Ga "SK-MCDHF-RSC" End
|  8>       NewGTO     Ga "cc-pVTZ-PP"   End
|  9>       NewAuxjGTO Ga "AutoAux" End
| 10>       NewAuxcGTO Ga "AutoAux" End
| 11>       NewCabsGTO Ga "AutoAux" End
| 12>       NewECP     Ge "SK-MCDHF-RSC" End
| 13>       NewGTO     Ge "cc-pVTZ-PP"   End
| 14>       NewAuxjGTO Ge "AutoAux" End
| 15>       NewAuxcGTO Ge "AutoAux" End
| 16>       NewCabsGTO Ge "AutoAux" End
| 17>       NewECP     As "SK-MCDHF-RSC" End
| 18>       NewGTO     As "cc-pVTZ-PP"   End
| 19>       NewAuxjGTO As "AutoAux" End
| 20>       NewAuxcGTO As "AutoAux" End
| 21>       NewCabsGTO As "AutoAux" End
| 22>       NewECP     Se "SK-MCDHF-RSC" End
| 23>       NewGTO     Se "cc-pVTZ-PP"   End
| 24>       NewAuxjGTO Se "AutoAux" End
| 25>       NewAuxcGTO Se "AutoAux" End
| 26>       NewCabsGTO Se "AutoAux" End
| 27>       NewECP     Br "SK-MCDHF-RSC" End
| 28>       NewGTO     Br "cc-pVTZ-PP"   End
| 29>       NewAuxjGTO Br "AutoAux" End
| 30>       NewAuxcGTO Br "AutoAux" End
| 31>       NewCabsGTO Br "AutoAux" End
| 32>       NewECP     Kr "SK-MCDHF-RSC" End
| 33>       NewGTO     Kr "cc-pVTZ-PP"   End
| 34>       NewAuxjGTO Kr "AutoAux" End
| 35>       NewAuxcGTO Kr "AutoAux" End
| 36>       NewCabsGTO Kr "AutoAux" End
| 37>       NewECP     In "SK-MCDHF-RSC" End
| 38>       NewGTO     In "cc-pVTZ-PP"   End
| 39>       NewAuxjGTO In "AutoAux" End
| 40>       NewAuxcGTO In "AutoAux" End
| 41>       NewCabsGTO In "AutoAux" End
| 42>       NewECP     Sn "SK-MCDHF-RSC" End
| 43>       NewGTO     Sn "cc-pVTZ-PP"   End
| 44>       NewAuxjGTO Sn "AutoAux" End
| 45>       NewAuxcGTO Sn "AutoAux" End
| 46>       NewCabsGTO Sn "AutoAux" End
| 47>       NewECP     Sb "SK-MCDHF-RSC" End
| 48>       NewGTO     Sb "cc-pVTZ-PP"   End
| 49>       NewAuxjGTO Sb "AutoAux" End
| 50>       NewAuxcGTO Sb "AutoAux" End
| 51>       NewCabsGTO Sb "AutoAux" End
| 52>       NewECP     Te "SK-MCDHF-RSC" End
| 53>       NewGTO     Te "cc-pVTZ-PP"   End
| 54>       NewAuxjGTO Te "AutoAux" End
| 55>       NewAuxcGTO Te "AutoAux" End
| 56>       NewCabsGTO Te "AutoAux" End
| 57>       NewECP     I  "SK-MCDHF-RSC" End
| 58>       NewGTO     I  "cc-pVTZ-PP"   End
| 59>       NewAuxjGTO I  "AutoAux" End
| 60>       NewAuxcGTO I  "AutoAux" End
| 61>       NewCabsGTO I  "AutoAux" End
| 62>       NewECP     Xe "SK-MCDHF-RSC" End
| 63>       NewGTO     Xe "cc-pVTZ-PP"   End
| 64>       NewAuxjGTO Xe "AutoAux" End
| 65>       NewAuxcGTO Xe "AutoAux" End
| 66>       NewCabsGTO Xe "AutoAux" End
| 67>     End
| 68> 
| 69>                          ****END OF INPUT****
================================================================================
Warning! AutoAux has not been tested for CABS - use at your own risk!
================================================================================

----- Orbital basis set information -----
Your calculation utilizes the basis: cc-pVTZ 
       H, B-Ne : Obtained from the ccRepo (grant-hill.group.shef.ac.uk/ccrepo) Feb. 2017
                 T. H. Dunning, Jr., J. Chem. Phys. 90, 1007 (1989)
            He : Obtained from the ccRepo (grant-hill.group.shef.ac.uk/ccrepo) Feb. 2017
                 D. E. Woon, T. H. Dunning, Jr., J. Chem. Phys. 100, 2975 (1994)
  Li-Be, Na-Mg : Obtained from the ccRepo (grant-hill.group.shef.ac.uk/ccrepo) Feb. 2017
                 B. P. Prascher, D. E. Woon, K. A. Peterson, T. H. Dunning, Jr., A. K. Wilson, Theor. Chem. Acc. 128, 69 (2011)
         Al-Ar : Obtained from the ccRepo (grant-hill.group.shef.ac.uk/ccrepo) Feb. 2017
                 D. E. Woon, T. H. Dunning, Jr., J. Chem. Phys. 98, 1358 (1993)
            Ca : Obtained from the Peterson Research Group Website (tyr0.chem.wsu.edu/~kipeters) Feb. 2017
                 J. Koput, K. A. Peterson, J. Phys. Chem. 106, 9595 (2002)
         Sc-Zn : Obtained from the ccRepo (grant-hill.group.shef.ac.uk/ccrepo) Feb. 2017
                 N. B. Balabanov, K. A. Peterson, J. Chem. Phys. 123, 064107 (2005)
                 N. B. Balabanov, K. A. Peterson, J. Chem. Phys. 125, 074110 (2006)
         Ga-Kr : Obtained from the ccRepo (grant-hill.group.shef.ac.uk/ccrepo) Feb. 2017
                 A. K. Wilson, D. E. Woon, K. A. Peterson, T. H. Dunning, Jr., J. Chem. Phys. 110, 7667 (1999)
             Y : Obtained from the ccRepo (grant-hill.group.shef.ac.uk/ccrepo) Feb. 2017
                 K. A. Peterson, D. Figgen, M. Dolg, H. Stoll, J. Chem. Phys. 126, 124101 (2007)
        Ag, Au : Obtained from the Peterson Research Group Website (tyr0.chem.wsu.edu/~kipeters) Feb. 2017
                 K. A. Peterson, C. Puzzarini, Theor. Chem. Acc. 114, 283 (2005)

The basis set includes element-specific modifications.

Your calculation utilizes the basis: cc-pVTZ-PP 
       Ca, Sr, Ba, Ra : Obtained from the Peterson Research Group Website (tyr0.chem.wsu.edu/~kipeters) Feb. 2017
                        H. Li, H. Feng, W. Sun, Y. Zhang, Q. Fan, K. A. Peterson, Y. Xie, H. F. Schaefer III, Mol. Phys. 111, 2292 (2013)
  Cu-Zn, Ag-Cd, Au-Hg : Obtained from the ccRepo (grant-hill.group.shef.ac.uk/ccrepo) Feb. 2017
                        K. A. Peterson, C. Puzzarini, Theor. Chem. Acc. 114, 283 (2005)
  Ga-Kr, In-Xe, Tl-Rn : Obtained from the ccRepo (grant-hill.group.shef.ac.uk/ccrepo) Feb. 2017
                        K. A. Peterson, J. Chem. Phys. 119, 11099 (2003)
                        K. A. Peterson, D. Figgen, E. Goll, H. Stoll, M. Dolg, J. Chem. Phys. 119, 11113 (2003)
                 Y-Pd : Obtained from the ccRepo (grant-hill.group.shef.ac.uk/ccrepo) Feb. 2017
                        K. A. Peterson, D. Figgen, M. Dolg, H. Stoll, J. Chem. Phys. 126, 124101 (2007)
                Hf-Pt : Obtained from the ccRepo (grant-hill.group.shef.ac.uk/ccrepo) Feb. 2017
                        D. Figgen, K. A. Peterson, M. Dolg, H. Stoll, J. Chem. Phys. 130, 164108 (2009)
                    U : Obtained from the ccRepo (grant-hill.group.shef.ac.uk/ccrepo) Feb. 2020
                        K. A. Peterson, J. Chem. Phys. 142, 074105 (2015)

----- AuxJ basis set information -----
Your calculation utilizes the AutoAux generation procedure.
  G. L. Stoychev, A. A. Auer, F. Neese, J. Chem. Theory Comput. 13, 554 (2017)

The basis set includes element-specific modifications.

----- AuxC basis set information -----
Your calculation utilizes the AutoAux generation procedure.
  G. L. Stoychev, A. A. Auer, F. Neese, J. Chem. Theory Comput. 13, 554 (2017)

The basis set includes element-specific modifications.

----- CABS information -----
Your calculation utilizes the AutoAux generation procedure.
  G. L. Stoychev, A. A. Auer, F. Neese, J. Chem. Theory Comput. 13, 554 (2017)

The basis set includes element-specific modifications.


                    <<< The CABS basis set will be decontracted >>>

================================================================================
                                        WARNINGS
                       Please study these warnings very carefully!
================================================================================


WARNING: No MP2 level density has been requested!
         To caclulate MP2 level properties use
         %mp2 Density relaxed end
         or
         %mp2 Density unrelaxed end

WARNING: Post HF methods need fully converged wavefunctions
  ===> : Setting SCFConvForced true
         You can overwrite this default with %scf ConvForced false 


INFO   : the flag for use of the SHARK integral package has been found!


                       ****************************
                       * Single Point Calculation *
                       ****************************

---------------------------------
CARTESIAN COORDINATES (ANGSTROEM)
---------------------------------
  C      0.000000    0.000000    0.661989
  C      0.000000    0.000000   -0.661989
  H      0.000000    0.920483    1.231826
  H      0.000000   -0.920483    1.231826
  H      0.000000    0.920483   -1.231826
  H      0.000000   -0.920483   -1.231826

----------------------------
CARTESIAN COORDINATES (A.U.)
----------------------------
  NO LB      ZA    FRAG     MASS         X           Y           Z
   0 C     6.0000    0    12.011    0.000000    0.000000    1.250978
   1 C     6.0000    0    12.011    0.000000    0.000000   -1.250978
   2 H     1.0000    0     1.008    0.000000    1.739461    2.327814
   3 H     1.0000    0     1.008    0.000000   -1.739461    2.327814
   4 H     1.0000    0     1.008    0.000000    1.739461   -2.327814
   5 H     1.0000    0     1.008    0.000000   -1.739461   -2.327814



           ************************************************************
           *        Program running with 5 parallel MPI-processes     *
           *              working on a common directory               *
           ************************************************************
------------------------------------------------------------------------------
                   ___                                                        
                  /   \      - P O W E R E D   B Y -                         
                 /     \                                                     
                 |  |  |   _    _      __       _____    __    __             
                 |  |  |  | |  | |    /  \     |  _  \  |  |  /  |          
                  \  \/   | |  | |   /    \    | | | |  |  | /  /          
                 / \  \   | |__| |  /  /\  \   | |_| |  |  |/  /          
                |  |  |   |  __  | /  /__\  \  |    /   |      \           
                |  |  |   | |  | | |   __   |  |    \   |  |\   \          
                \     /   | |  | | |  |  |  |  | |\  \  |  | \   \       
                 \___/    |_|  |_| |__|  |__|  |_| \__\ |__|  \__/        
                                                                              
                      - O R C A' S   B I G   F R I E N D -                    
                                      &                                       
                       - I N T E G R A L  F E E D E R -                       
                                                                              
 v1 FN, 2020, v2 2021                                                         
------------------------------------------------------------------------------


Reading SHARK input file c2h4_lw1x-p34_Compound_2.SHARKINP.tmp ... ok
----------------------
SHARK INTEGRAL PACKAGE
----------------------

Number of atoms                             ...      6
Number of basis functions                   ...    116
Number of shells                            ...     44
Maximum angular momentum                    ...      3
Integral batch strategy                     ... SHARK/LIBINT Hybrid
RI-J (if used) integral strategy            ... SPLIT-RIJ (Revised 2003 algorithm where possible)
Printlevel                                  ...      1
Contraction scheme used                     ... SEGMENTED contraction
Coulomb Range Separation                    ... NOT USED
Exchange Range Separation                   ... NOT USED
Finite Nucleus Model                        ... NOT USED
Auxiliary Coulomb fitting basis             ... AVAILABLE
   # of basis functions in Aux-J            ...    526
   # of shells in Aux-J                     ...    166
   Maximum angular momentum in Aux-J        ...      4
Auxiliary J/K fitting basis                 ... NOT available
Auxiliary Correlation fitting basis         ... AVAILABLE
   # of basis functions in Aux-C            ...    526
   # of shells in Aux-C                     ...    166
   Maximum angular momentum in Aux-C        ...      4
Auxiliary 'external' fitting basis          ... NOT available
Integral threshold                          ...     1.000000e-10
Primitive cut-off                           ...     1.000000e-11
Primitive pair pre-selection threshold      ...     1.000000e-11

Calculating pre-screening integrals         ... done (  0.0 sec) Dimension = 44
Organizing shell pair data                  ... done (  0.0 sec)
Shell pair information
Total number of shell pairs                 ...       990
Shell pairs after pre-screening             ...       990
Total number of primitive shell pairs       ...      3700
Primitive shell pairs kept                  ...      3300
          la=0 lb=0:    210 shell pairs
          la=1 lb=0:    280 shell pairs
          la=1 lb=1:    105 shell pairs
          la=2 lb=0:    160 shell pairs
          la=2 lb=1:    112 shell pairs
          la=2 lb=2:     36 shell pairs
          la=3 lb=0:     40 shell pairs
          la=3 lb=1:     28 shell pairs
          la=3 lb=2:     16 shell pairs
          la=3 lb=3:      3 shell pairs

Calculating one electron integrals          ... done (  0.0 sec)
Calculating RI/J V-Matrix + Cholesky decomp.... done (  0.0 sec)
Calculating RI/C V-Matrix + Cholesky decomp.... done (  0.0 sec)
Calculating Nuclear repulsion               ... done (  0.0 sec) ENN=     33.500164572333 Eh

SHARK setup successfully completed in   0.2 seconds

Maximum memory used throughout the entire GTOINT-calculation: 17.6 MB


           ************************************************************
           *        Program running with 5 parallel MPI-processes     *
           *              working on a common directory               *
           ************************************************************

Diagonalization of the overlap matrix:
Smallest eigenvalue                        ... 7.007e-04
Time for diagonalization                   ...    0.003 sec
Threshold for overlap eigenvalues          ... 1.000e-08
Number of eigenvalues below threshold      ... 0
Time for construction of square roots      ...    0.004 sec
Total time needed                          ...    0.007 sec

--------------------
COSX GRID GENERATION
--------------------

GRIDX 1
-------
General Integration Accuracy     IntAcc      ... 4.020
Radial Grid Type                 RadialGrid  ... OptM3 with GC (2021)
Angular Grid (max. ang.)         AngularGrid ... 2 (Lebedev-110)
Angular grid pruning method      GridPruning ... 4 (adaptive)
Weight generation scheme         WeightScheme... Becke
Basis function cutoff            BFCut       ... 1.0000e-10
Integration weight cutoff        WCut        ... 1.0000e-14
Angular grids for H and He will be reduced by one unit
Partially contracted basis set               ... on
Rotationally invariant grid construction     ... off

Total number of grid points                  ...     6900
Total number of batches                      ...      111
Average number of points per batch           ...       62
Average number of grid points per atom       ...     1150
UseSFitting                                  ... on

GRIDX 2
-------
General Integration Accuracy     IntAcc      ... 4.338
Radial Grid Type                 RadialGrid  ... OptM3 with GC (2021)
Angular Grid (max. ang.)         AngularGrid ... 3 (Lebedev-194)
Angular grid pruning method      GridPruning ... 4 (adaptive)
Weight generation scheme         WeightScheme... Becke
Basis function cutoff            BFCut       ... 1.0000e-10
Integration weight cutoff        WCut        ... 1.0000e-14
Angular grids for H and He will be reduced by one unit
Partially contracted basis set               ... on
Rotationally invariant grid construction     ... off

Total number of grid points                  ...    15208
Total number of batches                      ...      240
Average number of points per batch           ...       63
Average number of grid points per atom       ...     2535
UseSFitting                                  ... on

GRIDX 3
-------
General Integration Accuracy     IntAcc      ... 4.871
Radial Grid Type                 RadialGrid  ... OptM3 with GC (2021)
Angular Grid (max. ang.)         AngularGrid ... 4 (Lebedev-302)
Angular grid pruning method      GridPruning ... 4 (adaptive)
Weight generation scheme         WeightScheme... Becke
Basis function cutoff            BFCut       ... 1.0000e-10
Integration weight cutoff        WCut        ... 1.0000e-14
Angular grids for H and He will be reduced by one unit
Partially contracted basis set               ... on
Rotationally invariant grid construction     ... off

Total number of grid points                  ...    30622
Total number of batches                      ...      482
Average number of points per batch           ...       63
Average number of grid points per atom       ...     5104
UseSFitting                                  ... on

Time for X-Grid setup             =    0.428 sec

 re-compute Schwartz prescreening matrix in partically contracted basis (1) ...done (   0.086 sec)
--------------
SCF ITERATIONS
--------------
ITER       Energy         Delta-E        Max-DP      RMS-DP      [F,P]     Damp
               ***  Starting incremental Fock matrix formation  ***
                      *** Initiating the SOSCF procedure ***
                      *** Re-Reading the Fockian *** 
                      *** Removing any level shift *** 
ITER      Energy       Delta-E        Grad      Rot      Max-DP    RMS-DP
  0    -78.06409657 -78.0640965697  0.000630  0.000630  0.000354  0.000008
               *** Restarting incremental Fock matrix formation ***
  1    -78.06409765  -0.0000010763  0.000076  0.000081  0.000121  0.000003
                 **** Energy Check signals convergence ****
              ***Rediagonalizing the Fockian in SOSCF/NRSCF***

               *****************************************************
               *                     SUCCESS                       *
               *           SCF CONVERGED AFTER   2 CYCLES          *
               *****************************************************

Old exchange energy                            =    -11.756824570 Eh
New exchange energy                            =    -11.756796670 Eh
Exchange energy change after final integration =      0.000027900 Eh
Total energy after final integration           =    -78.064069841 Eh
Final COS-X integration done in                =     0.639 sec
Total Energy       :          -78.06406984 Eh           -2124.23133 eV
  Last Energy change         ...   -9.5603e-08  Tolerance :   1.0000e-06
  Last MAX-Density change    ...    8.8818e-16  Tolerance :   1.0000e-05
             **** THE GBW FILE WAS UPDATED (c2h4_lw1x-p34_Compound_2.gbw) ****
             **** DENSITY c2h4_lw1x-p34_Compound_2.scfp WAS UPDATED ****
             **** ENERGY FILE WAS UPDATED (c2h4_lw1x-p34_Compound_2.en.tmp) ****
             **** THE GBW FILE WAS UPDATED (c2h4_lw1x-p34_Compound_2.gbw) ****
             **** DENSITY c2h4_lw1x-p34_Compound_2.scfp WAS UPDATED ****
----------------
ORBITAL ENERGIES
----------------

  NO   OCC          E(Eh)            E(eV) 
   0   2.0000     -11.228252      -305.5363 
   1   2.0000     -11.226455      -305.4874 
   2   2.0000      -1.034937       -28.1621 
   3   2.0000      -0.791392       -21.5349 
   4   2.0000      -0.642192       -17.4749 
   5   2.0000      -0.589189       -16.0326 
   6   2.0000      -0.504206       -13.7201 
   7   2.0000      -0.378451       -10.2982 
   8   0.0000       0.153755         4.1839 
   9   0.0000       0.159309         4.3350 
  10   0.0000       0.187080         5.0907 
  11   0.0000       0.190768         5.1911 
  12   0.0000       0.241610         6.5746 
  13   0.0000       0.369108        10.0439 
  14   0.0000       0.373894        10.1742 
  15   0.0000       0.440376        11.9833 
  16   0.0000       0.445672        12.1273 
  17   0.0000       0.486266        13.2320 
  18   0.0000       0.566378        15.4119 
  19   0.0000       0.590987        16.0816 
  20   0.0000       0.593731        16.1563 
  21   0.0000       0.636626        17.3235 
  22   0.0000       0.638595        17.3771 
  23   0.0000       0.678856        18.4726 
  24   0.0000       0.695289        18.9198 
  25   0.0000       0.799104        21.7447 
  26   0.0000       0.830509        22.5993 
  27   0.0000       0.851406        23.1679 
  28   0.0000       0.877081        23.8666 
  29   0.0000       0.988141        26.8887 
  30   0.0000       1.085711        29.5437 
  31   0.0000       1.102302        29.9952 
  32   0.0000       1.182800        32.1856 
  33   0.0000       1.211720        32.9726 
  34   0.0000       1.219284        33.1784 
  35   0.0000       1.233884        33.5757 
  36   0.0000       1.299166        35.3521 
  37   0.0000       1.321459        35.9587 
  38   0.0000       1.379931        37.5498 
  39   0.0000       1.472866        40.0787 
  40   0.0000       1.484820        40.4040 
  41   0.0000       1.551409        42.2160 
  42   0.0000       1.586536        43.1718 
  43   0.0000       1.605847        43.6973 
  44   0.0000       1.613755        43.9125 
  45   0.0000       1.809667        49.2435 
  46   0.0000       1.827509        49.7290 
  47   0.0000       1.893621        51.5280 
  48   0.0000       2.315454        63.0067 
  49   0.0000       2.365828        64.3775 
  50   0.0000       2.554809        69.5199 
  51   0.0000       2.557471        69.5923 
  52   0.0000       2.614590        71.1466 
  53   0.0000       2.645653        71.9919 
  54   0.0000       2.719051        73.9891 
  55   0.0000       2.742190        74.6188 
  56   0.0000       2.896637        78.8215 
  57   0.0000       2.946898        80.1892 
  58   0.0000       3.078237        83.7631 
  59   0.0000       3.096523        84.2607 
  60   0.0000       3.097117        84.2768 
  61   0.0000       3.105914        84.5162 
  62   0.0000       3.120703        84.9186 
  63   0.0000       3.143063        85.5271 
  64   0.0000       3.163817        86.0918 
  65   0.0000       3.203082        87.1603 
  66   0.0000       3.234753        88.0221 
  67   0.0000       3.354861        91.2904 
  68   0.0000       3.407225        92.7153 
  69   0.0000       3.412638        92.8626 
  70   0.0000       3.420545        93.0778 
  71   0.0000       3.485333        94.8407 
  72   0.0000       3.497393        95.1689 
  73   0.0000       3.523831        95.8883 
  74   0.0000       3.587408        97.6183 
  75   0.0000       3.612836        98.3103 
  76   0.0000       3.729669       101.4895 
  77   0.0000       3.791326       103.1672 
  78   0.0000       3.921489       106.7091 
  79   0.0000       3.933659       107.0403 
  80   0.0000       3.947859       107.4267 
  81   0.0000       4.017215       109.3140 
  82   0.0000       4.022739       109.4643 
  83   0.0000       4.049528       110.1933 
  84   0.0000       4.131452       112.4225 
  85   0.0000       4.190090       114.0181 
  86   0.0000       4.223857       114.9370 
  87   0.0000       4.230051       115.1055 
  88   0.0000       4.281979       116.5186 
  89   0.0000       4.333543       117.9217 
  90   0.0000       4.361315       118.6774 
  91   0.0000       4.401949       119.7831 
  92   0.0000       4.451932       121.1432 
  93   0.0000       4.557846       124.0253 
  94   0.0000       4.684272       127.4655 
  95   0.0000       4.862649       132.3194 
  96   0.0000       4.877938       132.7354 
  97   0.0000       4.914152       133.7209 
  98   0.0000       4.957906       134.9115 
  99   0.0000       5.017496       136.5330 
 100   0.0000       5.112925       139.1298 
 101   0.0000       5.222890       142.1221 
 102   0.0000       5.224482       142.1654 
 103   0.0000       5.375683       146.2798 
 104   0.0000       5.397778       146.8810 
 105   0.0000       5.440438       148.0418 
 106   0.0000       5.528986       150.4513 
 107   0.0000       5.543412       150.8439 
 108   0.0000       5.654692       153.8720 
 109   0.0000       5.775738       157.1658 
 110   0.0000       6.264427       170.4637 
 111   0.0000       6.357701       173.0018 
 112   0.0000       6.413286       174.5144 
 113   0.0000       6.841884       186.1771 
 114   0.0000      11.797158       321.0170 
 115   0.0000      14.871388       404.6710 
Total SCF time: 0 days 0 hours 0 min 2 sec 

Maximum memory used throughout the entire SCF-calculation: 62.0 MB


           ************************************************************
           *        Program running with 5 parallel MPI-processes     *
           *              working on a common directory               *
           ************************************************************

------------------------------------------------------------------------------
                                ORCA  MP2 
------------------------------------------------------------------------------

Freezing NCore=4 chemical core electrons
Initializing SHARK ... done


------------------------------------------------------------------------------
                           ORCA ORBITAL LOCALIZATION
------------------------------------------------------------------------------

Input orbitals are from                  ... c2h4_lw1x-p34_Compound_2.gbw
Output orbitals are to                   ... c2h4_lw1x-p34_Compound_2.loc
Max. number of iterations                ... 128
Localizations seeded randomly            ... off
Convergence tolerance                    ... 1.000e-06
Treshold for strong local MOs            ... 9.500e-01
Treshold for bond MOs                    ... 8.500e-01
Operator                                 ... 0
Orbital range for localization           ... 2 to 7
Localization criterion                   ... FOSTER-BOYS (AUGMENTED HESSIAN)
Doing the dipole integrals     ... o.k.
Initial value of the localization sum :     9.184133
ITERATION   0 : L=   20.7436839985 DL=  1.16e+01 (AVERGE_DL)=    0.8778591671 
ITERATION   1 : L=   22.0693722398 DL=  1.33e+00 (AVERGE_DL)=    0.2972864210 
ITERATION   2 : L=   22.0823630099 DL=  1.30e-02 (AVERGE_DL)=    0.0294287503 
ITERATION   3 : L=   22.0823818815 DL=  1.89e-05 (AVERGE_DL)=    0.0011216531 
ITERATION   4 : L=   22.0823818826 DL=  1.12e-09 (AVERGE_DL)=    0.0000086438 
LOCALIZATION SUM CONVERGED

------------------------------------------------------
AUGMENTED HESSIAN OPTIMIZATION OF FOSTER-BOYS ORBITALS
------------------------------------------------------

Spin operator:           0
Orbital window:          2 to 7
Number of iterations:    128
Gradient tolerance:      1.000e-06
Number of pairs:         15
Davidson threshold:      2000
Diagonalization method:  LAPACK
Iter:    0   L: 22.0823818826   Grad. norm: 1.695527e-04
   *** Likely close to a maximum now. ***
       Augmented Hessian eigenvalues:  4.43e-10 -5.44e+00 -1.81e+01 -1.88e+01 ... 
Iter:    1   L: 22.0823818829   Grad. norm: 3.141781e-11
LOCALIZATION HAS CONVERGED.

Eigenvalues of the Hessian:
  0 -5.445e+00
  1 -1.813e+01
  2 -1.877e+01
  3 -1.980e+01
  4 -2.081e+01
  5 -2.249e+01
  6 -2.259e+01
  7 -2.346e+01
  8 -2.389e+01
  9 -2.389e+01
    ...


------------------------------------------------------------------------------- 
                    LOCALIZED MOLECULAR ORBITAL COMPOSITIONS                   
------------------------------------------------------------------------------- 

The Mulliken populations for each LMO on each atom are computed
The LMO`s will be ordered according to atom index and type
  (A) Strongly localized MO`s have populations of >=0.950 on one atom
  (B) Two center bond orbitals have populations of >=0.850 on two atoms
  (C) Other MO`s are considered to be `delocalized`

FOUND  -   0 strongly local MO`s
       -   6 two center bond MO`s
       -   0 significantly delocalized MO`s

Bond-like localized orbitals:
MO   7:   5H  -   0.444199  and   1C  -   0.579430
MO   6:   4H  -   0.444198  and   1C  -   0.579431
MO   5:   3H  -   0.444198  and   0C  -   0.579431
MO   4:   2H  -   0.444198  and   0C  -   0.579430
MO   3:   1C  -   0.506826  and   0C  -   0.506825
MO   2:   1C  -   0.506825  and   0C  -   0.506825
Localized MO's were stored in: c2h4_lw1x-p34_Compound_2.loc



Calculating differential overlap integrals ... ok
Threshold for domain construction in prescreening: TCutDOPre = 3.0e-02

--------------------------
ELECTRON PAIR PRESCREENING
--------------------------

Dipole-based pair screening          .... used

   TCutDOij = 1.000000e-05
   TCutPre  = 1.000000e-06
   .... Finished loop over pairs
Total time spent in the prescreening                  ...     0.006 sec
sum of pair energies estimated for screened out pairs ...       0.000000000000 Eh

---------------------------
MAP CONSTRUCTION THRESHOLDS
---------------------------
    TCutMKN     ...     1.0e-03
    TCutDO      ...     5.0e-03
    TCutC(MO)   ...     1.0e-03
    TCutC(PAO)  ...     1.0e-03

--------------------------------
LOCAL RI TRANSFORMATION (IAVPAO)
--------------------------------

Orbital window:       2 to 7
Number of PAOs:     116
Basis functions:    116 (44 shells)
Aux. functions:     526 (166 shells)
Use SHARK:           on

Processing maps (0.0 sec)
Average map sizes:
   Aux shells -> MOs               6.0
   Aux shells -> PAOs            116.0
   MOs        -> AO shells        44.0
   PAOs       -> AO shells        44.0

Calculating integrals (0.1 sec, 2.799 MB)
Sorting integrals (0.0 sec, 2.793 MB)
Total time for the integral transformation: 0.1 sec

----------------------------
Local MP2 Energy Calculation
----------------------------
Number of orbital pairs included:     21
Truncation parameters:
    PAOOverlapThresh    =        1.000e-08
    TCutPNO             =        1.000e-09

Spin component scaling                      .... not used
MP2 energy scaling factor                   .... 1.000

Formation of semicanonical amplitudes.
 10% done.
 20% done.
 30% done.
 40% done.
 50% done.
 60% done.
 70% done.
 80% done.
 90% done.
100% done.

Finished the LMP2 guess in 0.1 sec.

Average number of PAOs per pair        116.0
Average number of nrPAOs per pair      108.0
Average number of PNOs per pair         97.1
Average number of AUX  per pair        526.0

Semicanonical MP2 energy:                   -0.325115390255 Eh
Semicanonical MP2 energy in PNO basis:      -0.325114763019 Eh

Initial amplitudes guess done. Entering DLPNO-MP2 iteration loop:
   Max. no of iterations          ...  100
   Energy convergence tolerance   ...    1.0e-06 Eh
   Residual convergence tolerance ...    5.0e-06
   Fock matrix cutoff             ...    1.0e-05 Eh
   Max # vectors in DIIS          ...  7
   Start iteration of DIIS        ...  0
   Levelshift                     ...  2.000e-01 Eh
   Damping before turning on DIIS ...  5.000e-01
   Damping after turning on DIIS  ...  0.000e+00

                           *** Turning on DIIS ***
Iter=   0:  ECORR= -0.330668532101  DE=   5.6e-03 RMAX=   1.6e-02
Iter=   1:  ECORR= -0.334269871226  DE=   3.6e-03 RMAX=   6.5e-03
Iter=   2:  ECORR= -0.335034336340  DE=   7.6e-04 RMAX=   2.4e-03
Iter=   3:  ECORR= -0.335103704003  DE=   6.9e-05 RMAX=   6.2e-04
Iter=   4:  ECORR= -0.335092256911  DE=   1.1e-05 RMAX=   1.3e-04
Iter=   5:  ECORR= -0.335091387543  DE=   8.7e-07 RMAX=   2.2e-05
Iter=   6:  ECORR= -0.335091531178  DE=   1.4e-07 RMAX=   2.6e-06 => CONVERGED

Finished the DLPNO-MP2 iterations in 1.2 sec.

LMP2 correlation energy (all non-screened pairs)      ...     -0.335091531178 Eh
Semicanonical PNO correction to energy                ...     -0.000000627236 Eh
Sum of pair energies estimated for screened out pairs ...      0.000000000000 Eh
                                                         -----------------------
Total:                                                ...     -0.335092158414 Eh

------------------------------------------------------
 DLPNO-MP2 CORRELATION ENERGY:      -0.335092158414 Eh
[...]
   6   2.0000      -0.504327       -13.7234 
   7   2.0000      -0.378496       -10.2994 
   8   0.0000       0.153721         4.1830 
   9   0.0000       0.159264         4.3338 
  10   0.0000       0.186430         5.0730 
  11   0.0000       0.190774         5.1912 
  12   0.0000       0.241584         6.5738 
  13   0.0000       0.367028         9.9873 
  14   0.0000       0.368060        10.0154 
  15   0.0000       0.439702        11.9649 
  16   0.0000       0.442161        12.0318 
  17   0.0000       0.480538        13.0761 
  18   0.0000       0.563886        15.3441 
  19   0.0000       0.589830        16.0501 
  20   0.0000       0.593533        16.1508 
  21   0.0000       0.634869        17.2757 
  22   0.0000       0.636088        17.3088 
  23   0.0000       0.677544        18.4369 
  24   0.0000       0.695071        18.9138 
  25   0.0000       0.793966        21.6049 
  26   0.0000       0.829893        22.5825 
  27   0.0000       0.851251        23.1637 
  28   0.0000       0.875423        23.8215 
  29   0.0000       0.986904        26.8550 
  30   0.0000       1.085697        29.5433 
  31   0.0000       1.098655        29.8959 
  32   0.0000       1.181049        32.1380 
  33   0.0000       1.182282        32.1715 
  34   0.0000       1.218732        33.1634 
  35   0.0000       1.231532        33.5117 
  36   0.0000       1.298404        35.3314 
  37   0.0000       1.319189        35.8970 
  38   0.0000       1.377619        37.4869 
  39   0.0000       1.460418        39.7400 
  40   0.0000       1.460586        39.7446 
  41   0.0000       1.549019        42.1509 
  42   0.0000       1.582195        43.0537 
  43   0.0000       1.593643        43.3652 
  44   0.0000       1.611317        43.8462 
  45   0.0000       1.611466        43.8502 
  46   0.0000       1.615147        43.9504 
  47   0.0000       1.881555        51.1997 
  48   0.0000       2.228514        60.6410 
  49   0.0000       2.270601        61.7862 
  50   0.0000       2.409387        65.5627 
  51   0.0000       2.513492        68.3956 
  52   0.0000       2.550726        69.4088 
  53   0.0000       2.564724        69.7897 
  54   0.0000       2.628832        71.5341 
  55   0.0000       2.741489        74.5997 
  56   0.0000       2.860623        77.8415 
  57   0.0000       2.946720        80.1843 
  58   0.0000       2.967834        80.7589 
  59   0.0000       3.029954        82.4493 
  60   0.0000       3.093094        84.1674 
  61   0.0000       3.094153        84.1962 
  62   0.0000       3.105502        84.5050 
  63   0.0000       3.117296        84.8259 
  64   0.0000       3.142723        85.5178 
  65   0.0000       3.158369        85.9436 
  66   0.0000       3.183556        86.6290 
  67   0.0000       3.201510        87.1175 
  68   0.0000       3.350429        91.1698 
  69   0.0000       3.354276        91.2745 
  70   0.0000       3.377369        91.9029 
  71   0.0000       3.412777        92.8664 
  72   0.0000       3.436103        93.5011 
  73   0.0000       3.495462        95.1164 
  74   0.0000       3.523527        95.8801 
  75   0.0000       3.612790        98.3090 
  76   0.0000       3.637067        98.9696 
  77   0.0000       3.704796       100.8126 
  78   0.0000       3.731813       101.5478 
  79   0.0000       3.783131       102.9442 
  80   0.0000       3.920820       106.6909 
  81   0.0000       3.956525       107.6625 
  82   0.0000       4.013857       109.2226 
  83   0.0000       4.014199       109.2319 
  84   0.0000       4.021395       109.4277 
  85   0.0000       4.023734       109.4914 
  86   0.0000       4.131361       112.4201 
  87   0.0000       4.188676       113.9797 
  88   0.0000       4.222050       114.8878 
  89   0.0000       4.296989       116.9270 
  90   0.0000       4.314702       117.4090 
  91   0.0000       4.332762       117.9005 
  92   0.0000       4.360852       118.6648 
  93   0.0000       4.450144       121.0946 
  94   0.0000       4.463289       121.4523 
  95   0.0000       4.557622       124.0192 
  96   0.0000       4.629649       125.9792 
  97   0.0000       4.845917       131.8641 
  98   0.0000       4.899904       133.3332 
  99   0.0000       4.947959       134.6408 
 100   0.0000       5.004107       136.1687 
 101   0.0000       5.041102       137.1754 
 102   0.0000       5.222983       142.1246 
 103   0.0000       5.318131       144.7137 
 104   0.0000       5.388831       146.6375 
 105   0.0000       5.417475       147.4170 
 106   0.0000       5.507319       149.8618 
 107   0.0000       5.516512       150.1119 
 108   0.0000       5.528071       150.4264 
 109   0.0000       5.682946       154.6408 
 110   0.0000       5.749022       156.4388 
 111   0.0000       6.166718       167.8049 
 112   0.0000       6.247587       170.0055 
 113   0.0000       6.344719       172.6486 
 114   0.0000       6.708116       182.5371 
 115   0.0000       6.836706       186.0362 
 116   0.0000      10.434557       283.9387 
 117   0.0000      10.550258       287.0871 
 118   0.0000      11.575050       314.9731 
 119   0.0000      11.616656       316.1053 
 120   0.0000      11.657680       317.2216 
 121   0.0000      11.756218       319.9029 
 122   0.0000      13.052714       355.1824 
 123   0.0000      13.651327       371.4715 
 124   0.0000      14.727493       400.7555 
 125   0.0000      14.975356       407.5001 
 126   0.0000      15.016824       408.6286 
 127   0.0000      15.034814       409.1181 
 128   0.0000      15.328630       417.1132 
 129   0.0000      15.455321       420.5607 
 130   0.0000      15.466067       420.8531 
 131   0.0000      15.547268       423.0627 
 132   0.0000      16.037396       436.3997 
 133   0.0000      16.683623       453.9845 
 134   0.0000      50.393310      1371.2717 
 135   0.0000      50.487943      1373.8468 
 136   0.0000      51.185201      1392.8201 
 137   0.0000      51.233890      1394.1450 
 138   0.0000      51.248560      1394.5442 
 139   0.0000      51.407197      1398.8609 
 140   0.0000      62.720326      1706.7069 
 141   0.0000      63.515564      1728.3464 
Total SCF time: 0 days 0 hours 0 min 3 sec 

Maximum memory used throughout the entire SCF-calculation: 63.2 MB


           ************************************************************
           *        Program running with 5 parallel MPI-processes     *
           *              working on a common directory               *
           ************************************************************

------------------------------------------------------------------------------
                                ORCA  MP2 
------------------------------------------------------------------------------

Freezing NCore=0 chemical core electrons
Initializing SHARK ... done


------------------------------------------------------------------------------
                           ORCA ORBITAL LOCALIZATION
------------------------------------------------------------------------------

Input orbitals are from                  ... c2h4_lw1x-p34_Compound_6.gbw
Output orbitals are to                   ... c2h4_lw1x-p34_Compound_6.loc
Max. number of iterations                ... 128
Localizations seeded randomly            ... off
Convergence tolerance                    ... 1.000e-06
Treshold for strong local MOs            ... 9.500e-01
Treshold for bond MOs                    ... 8.500e-01
Operator                                 ... 0
Orbital range for localization           ... 0 to 7
Localization criterion                   ... FOSTER-BOYS (AUGMENTED HESSIAN)
Doing the dipole integrals     ... o.k.
Initial value of the localization sum :    12.308185
ITERATION   0 : L=   23.7993465945 DL=  1.15e+01 (AVERGE_DL)=    0.6406236266 
ITERATION   1 : L=   25.2348171447 DL=  1.44e+00 (AVERGE_DL)=    0.2264217422 
ITERATION   2 : L=   25.2486247840 DL=  1.38e-02 (AVERGE_DL)=    0.0222065301 
ITERATION   3 : L=   25.2486449390 DL=  2.02e-05 (AVERGE_DL)=    0.0008484224 
ITERATION   4 : L=   25.2486449430 DL=  3.96e-09 (AVERGE_DL)=    0.0000118894 
LOCALIZATION SUM CONVERGED

------------------------------------------------------
AUGMENTED HESSIAN OPTIMIZATION OF FOSTER-BOYS ORBITALS
------------------------------------------------------

Spin operator:           0
Orbital window:          0 to 7
Number of iterations:    128
Gradient tolerance:      1.000e-06
Number of pairs:         28
Davidson threshold:      2000
Diagonalization method:  LAPACK
Iter:    0   L: 25.2486449430   Grad. norm: 8.025347e-05
   *** Likely close to a maximum now. ***
       Augmented Hessian eigenvalues:  2.07e-10 -5.49e+00 -6.81e+00 -6.81e+00 ... 
Iter:    1   L: 25.2486449431   Grad. norm: 1.634101e-11
LOCALIZATION HAS CONVERGED.

Eigenvalues of the Hessian:
  0 -5.492e+00
  1 -6.808e+00
  2 -6.808e+00
  3 -7.133e+00
  4 -7.133e+00
  5 -7.759e+00
  6 -7.760e+00
  7 -9.221e+00
  8 -9.221e+00
  9 -1.815e+01
    ...


------------------------------------------------------------------------------- 
                    LOCALIZED MOLECULAR ORBITAL COMPOSITIONS                   
------------------------------------------------------------------------------- 

The Mulliken populations for each LMO on each atom are computed
The LMO`s will be ordered according to atom index and type
  (A) Strongly localized MO`s have populations of >=0.950 on one atom
  (B) Two center bond orbitals have populations of >=0.850 on two atoms
  (C) Other MO`s are considered to be `delocalized`

FOUND  -   2 strongly local MO`s
       -   6 two center bond MO`s
       -   0 significantly delocalized MO`s

Rather strongly localized orbitals:
MO   1:   1C  -   1.000968
MO   0:   0C  -   1.000968
Bond-like localized orbitals:
MO   7:   5H  -   0.463284  and   1C  -   0.553076
MO   6:   4H  -   0.463283  and   1C  -   0.553078
MO   5:   3H  -   0.463283  and   0C  -   0.553078
MO   4:   2H  -   0.463283  and   0C  -   0.553078
MO   3:   1C  -   0.501430  and   0C  -   0.501430
MO   2:   1C  -   0.501430  and   0C  -   0.501430
Localized MO's were stored in: c2h4_lw1x-p34_Compound_6.loc



Calculating differential overlap integrals ... ok
Threshold for domain construction in prescreening: TCutDOPre = 3.0e-02

--------------------------
ELECTRON PAIR PRESCREENING
--------------------------

Dipole-based pair screening          .... used

   TCutDOij = 1.000000e-05
   TCutPre  = 1.000000e-06
   .... Finished loop over pairs
Total time spent in the prescreening                  ...     0.003 sec
sum of pair energies estimated for screened out pairs ...       0.000000000000 Eh

---------------------------
MAP CONSTRUCTION THRESHOLDS
---------------------------
    TCutMKN     ...     1.0e-03
    TCutDO      ...     5.0e-03
    TCutC(MO)   ...     1.0e-03
    TCutC(PAO)  ...     1.0e-03

--------------------------------
LOCAL RI TRANSFORMATION (IAVPAO)
--------------------------------

Orbital window:       0 to 7
Number of PAOs:     142
Basis functions:    142 (54 shells)
Aux. functions:     658 (190 shells)
Use SHARK:           on

Processing maps (0.0 sec)
Average map sizes:
   Aux shells -> MOs               8.0
   Aux shells -> PAOs            142.0
   MOs        -> AO shells        51.0
   PAOs       -> AO shells        54.0

Calculating integrals (0.2 sec, 5.710 MB)
Sorting integrals (0.0 sec, 5.703 MB)
Total time for the integral transformation: 0.3 sec

----------------------------
Local MP2 Energy Calculation
----------------------------
Number of orbital pairs included:     36
Truncation parameters:
    PAOOverlapThresh    =        1.000e-08
    TCutPNO             =        1.000e-09

Spin component scaling                      .... not used
MP2 energy scaling factor                   .... 1.000

Formation of semicanonical amplitudes.
 10% done.
 20% done.
 30% done.
 40% done.
 50% done.
 60% done.
 70% done.
 80% done.
 90% done.
100% done.

Finished the LMP2 guess in 0.4 sec.

Average number of PAOs per pair        142.0
Average number of nrPAOs per pair      134.0
Average number of PNOs per pair         84.1
Average number of AUX  per pair        587.7

Semicanonical MP2 energy:                   -0.418654148154 Eh
Semicanonical MP2 energy in PNO basis:      -0.418649189764 Eh

Initial amplitudes guess done. Entering DLPNO-MP2 iteration loop:
   Max. no of iterations          ...  100
   Energy convergence tolerance   ...    1.0e-06 Eh
   Residual convergence tolerance ...    5.0e-06
   Fock matrix cutoff             ...    1.0e-05 Eh
   Max # vectors in DIIS          ...  7
   Start iteration of DIIS        ...  0
   Levelshift                     ...  2.000e-01 Eh
   Damping before turning on DIIS ...  5.000e-01
   Damping after turning on DIIS  ...  0.000e+00

                           *** Turning on DIIS ***
Iter=   0:  ECORR= -0.424967738029  DE=   6.3e-03 RMAX=   1.7e-02
Iter=   1:  ECORR= -0.429931975267  DE=   5.0e-03 RMAX=   7.6e-03
Iter=   2:  ECORR= -0.431014315583  DE=   1.1e-03 RMAX=   3.3e-03
Iter=   3:  ECORR= -0.431267819172  DE=   2.5e-04 RMAX=   1.1e-03
Iter=   4:  ECORR= -0.431267985418  DE=   1.7e-07 RMAX=   2.6e-04
Iter=   5:  ECORR= -0.431263778489  DE=   4.2e-06 RMAX=   5.7e-05
Iter=   6:  ECORR= -0.431263135925  DE=   6.4e-07 RMAX=   7.6e-06
Iter=   7:  ECORR= -0.431263254874  DE=   1.2e-07 RMAX=   1.0e-06 => CONVERGED

Finished the DLPNO-MP2 iterations in 2.7 sec.

LMP2 correlation energy (all non-screened pairs)      ...     -0.431263254874 Eh
Semicanonical PNO correction to energy                ...     -0.000004958391 Eh
Sum of pair energies estimated for screened out pairs ...      0.000000000000 Eh
                                                         -----------------------
Total:                                                ...     -0.431268213264 Eh

------------------------------------------------------
 DLPNO-MP2 CORRELATION ENERGY:      -0.431268213264 Eh
------------------------------------------------------

TIMINGS FOR DLPNO-MP2:
Localization                             ...        0.228 sec
Differential overlap integrals           ...        0.767 sec
Prescreening                             ...        0.138 sec
Map setup                                ...        0.001 sec
(ia|v) trafo                             ...        0.288 sec
Semicanonical amplitudes                 ...        0.238 sec
PNO construction                         ...        0.041 sec
DLPNO-MP2 iterations                     ...        2.739 sec
                                             ----------------
Total time                                          4.979 sec


---------------------------------------
MP2 TOTAL ENERGY:      -78.495966118 Eh
---------------------------------------

Maximum memory used throughout the entire MP2-calculation: 109.7 MB

-------------------------   --------------------
FINAL SINGLE POINT ENERGY       -78.495966118379
-------------------------   --------------------


                            ***************************************
                            *     ORCA property calculations      *
                            ***************************************


  WARNING: The energy has been calculated at the MP2 level but the densities
           used in the property calculations are still SCF densities
           MP2 response densities have not been calculated 
           use %mp2 Density relaxed end
           or  %mp2 Density unrelaxed end

                                    ---------------------
                                    Active property flags
                                    ---------------------
   (+) Dipole Moment


------------------------------------------------------------------------------
                       ORCA ELECTRIC PROPERTIES CALCULATION
------------------------------------------------------------------------------

Dipole Moment Calculation                       ... on
Quadrupole Moment Calculation                   ... off
Polarizability Calculation                      ... off
GBWName                                         ... c2h4_lw1x-p34_Compound_6.gbw
Electron density                                ... c2h4_lw1x-p34_Compound_6.scfp
The origin for moment calculation is the CENTER OF MASS  = ( 0.000000,  0.000000  0.000000)

-------------
DIPOLE MOMENT
-------------
                                X             Y             Z
Electronic contribution:     -0.00000      -0.00000      -0.00000
Nuclear contribution   :      0.00000       0.00000       0.00000
                        -----------------------------------------
Total Dipole Moment    :     -0.00000      -0.00000      -0.00000
                        -----------------------------------------
Magnitude (a.u.)       :      0.00000
Magnitude (Debye)      :      0.00000



--------------------
Rotational spectrum 
--------------------
 
Rotational constants in cm-1:     4.934519     1.012758     0.840296 
Rotational constants in MHz : 147933.160668 30361.719210 25191.441779 

 Dipole components along the rotational axes: 
x,y,z [a.u.] :    -0.000000    -0.000000    -0.000000 
x,y,z [Debye]:    -0.000000    -0.000000    -0.000000 

 

Timings for individual modules:

Sum of individual times         ...       10.091 sec (=   0.168 min)
GTO integral calculation        ...        0.885 sec (=   0.015 min)   8.8 %
SCF iterations                  ...        3.563 sec (=   0.059 min)  35.3 %
MP2 module                      ...        5.643 sec (=   0.094 min)  55.9 %
================================================================================

----- Orbital basis set information -----
Your calculation utilizes the basis: def2-SVP
   F. Weigend and R. Ahlrichs, Phys. Chem. Chem. Phys. 7, 3297 (2005).



----------------------------------------------------------------------------------------------
                                        COMPOUND BLOCK                                        
                                     SUMMARY OF VARIABLES                                     
----------------------------------------------------------------------------------------------

Variable Name                                           Value             Evaluation String
-------------                                           -----             -----------------
HF_DZ                                    |             -78.06604272    |  
EC_DZ                                    |              -0.37781375    |  
CC_DZ                                    |              -0.36790780    |  EC_DZ-T_DZ
T_DZ                                     |              -0.00990595    |  
HF_TZ                                    |             -78.06928569    |  
EC_TZ                                    |              -0.39497849    |  
CC_TZ                                    |              -0.38008317    |  EC_TZ-T_TZ
T_TZ                                     |              -0.01489531    |  
HF_CBS                                   |             -78.06977752    |  HF_TZ-(HF_TZ-HF_DZ)*3^-5/(3^-5-2^-5)
CC_CBS                                   |              -0.38216966    |  CC_TZ-(CC_TZ-CC_DZ)*3^-4.7405/(3^-4.7405-2^-4.7405)
T_CBS                                    |              -0.01864211    |  T_TZ-(T_TZ-T_DZ)*3^-2.0879/(3^-2.0879-2^-2.0879)
MP_FC                                    |             -78.40415647    |  
MP_FU                                    |             -78.49596612    |  
MP_CV                                    |              -0.09180965    |  MP_FU-MP_FC
MP_PP                                    |             -78.39916200    |  
MP_DK                                    |             -78.42863342    |  
MP_REL                                   |              -0.02947142    |  MP_DK-MP_PP
LW1X                                     |             -78.59187036    |  HF_CBS+CC_CBS+T_CBS+MP_CV+MP_REL
                             ****ORCA TERMINATED NORMALLY****
TOTAL RUN TIME: 0 days 0 hours 3 minutes 43 seconds 371 msec
