
                                 *****************
                                 * O   R   C   A *
                                 *****************

                                            #,                                       
                                            ###                                      
                                            ####                                     
                                            #####                                    
                                            ######                                   
                                           ########,                                 
                                     ,,################,,,,,                         
                               ,,#################################,,                 
                          ,,##########################################,,             
                       ,#########################################, ''#####,          
                    ,#############################################,,   '####,        
                  ,##################################################,,,,####,       
                ,###########''''           ''''###############################       
              ,#####''   ,,,,##########,,,,          '''####'''          '####       
            ,##' ,,,,###########################,,,                        '##       
           ' ,,###''''                  '''############,,,                           
         ,,##''                                '''############,,,,        ,,,,,,###''
      ,#''                                            '''#######################'''  
     '                                                          ''''####''''         
             ,#######,   #######,   ,#######,      ##                                
            ,#'     '#,  ##    ##  ,#'     '#,    #''#        ######   ,####,        
            ##       ##  ##   ,#'  ##            #'  '#       #        #'  '#        
            ##       ##  #######   ##           ,######,      #####,   #    #        
            '#,     ,#'  ##    ##  '#,     ,#' ,#      #,         ##   #,  ,#        
             '#######'   ##     ##  '#######'  #'      '#     #####' # '####'        



                  #######################################################
                  #                        -***-                        #
                  #          Department of theory and spectroscopy      #
                  #    Directorship and core code : Frank Neese         #
                  #        Max Planck Institute fuer Kohlenforschung    #
                  #                Kaiser Wilhelm Platz 1               #
                  #                 D-45470 Muelheim/Ruhr               #
                  #                      Germany                        #
                  #                                                     #
                  #                  All rights reserved                #
                  #                        -***-                        #
                  #######################################################


                         Program Version 5.0.1 -  RELEASE  -


 With contributions from (in alphabetic order):
   Daniel Aravena         : Magnetic Suceptibility
   Michael Atanasov       : Ab Initio Ligand Field Theory (pilot matlab implementation)
   Alexander A. Auer      : GIAO ZORA, VPT2 properties, NMR spectrum
   Ute Becker             : Parallelization
   Giovanni Bistoni       : ED, misc. LED, open-shell LED, HFLD
   Martin Brehm           : Molecular dynamics
   Dmytro Bykov           : SCF Hessian
   Vijay G. Chilkuri      : MRCI spin determinant printing, contributions to CSF-ICE
   Dipayan Datta          : RHF DLPNO-CCSD density
   Achintya Kumar Dutta   : EOM-CC, STEOM-CC
   Dmitry Ganyushin       : Spin-Orbit,Spin-Spin,Magnetic field MRCI
   Miquel Garcia          : C-PCM and meta-GGA Hessian, CC/C-PCM, Gaussian charge scheme
   Yang Guo               : DLPNO-NEVPT2, F12-NEVPT2, CIM, IAO-localization
   Andreas Hansen         : Spin unrestricted coupled pair/coupled cluster methods
   Benjamin Helmich-Paris : MC-RPA, TRAH-SCF, COSX integrals
   Lee Huntington         : MR-EOM, pCC
   Robert Izsak           : Overlap fitted RIJCOSX, COSX-SCS-MP3, EOM
   Marcus Kettner         : VPT2
   Christian Kollmar      : KDIIS, OOCD, Brueckner-CCSD(T), CCSD density, CASPT2, CASPT2-K
   Simone Kossmann        : Meta GGA functionals, TD-DFT gradient, OOMP2, MP2 Hessian
   Martin Krupicka        : Initial AUTO-CI
   Lucas Lang             : DCDCAS
   Marvin Lechner         : AUTO-CI (C++ implementation), FIC-MRCC
   Dagmar Lenk            : GEPOL surface, SMD
   Dimitrios Liakos       : Extrapolation schemes; Compound Job, initial MDCI parallelization
   Dimitrios Manganas     : Further ROCIS development; embedding schemes
   Dimitrios Pantazis     : SARC Basis sets
   Anastasios Papadopoulos: AUTO-CI, single reference methods and gradients
   Taras Petrenko         : DFT Hessian,TD-DFT gradient, ASA, ECA, R-Raman, ABS, FL, XAS/XES, NRVS
   Peter Pinski           : DLPNO-MP2, DLPNO-MP2 Gradient
   Christoph Reimann      : Effective Core Potentials
   Marius Retegan         : Local ZFS, SOC
   Christoph Riplinger    : Optimizer, TS searches, QM/MM, DLPNO-CCSD(T), (RO)-DLPNO pert. Triples
   Tobias Risthaus        : Range-separated hybrids, TD-DFT gradient, RPA, STAB
   Michael Roemelt        : Original ROCIS implementation
   Masaaki Saitow         : Open-shell DLPNO-CCSD energy and density
   Barbara Sandhoefer     : DKH picture change effects
   Avijit Sen             : IP-ROCIS
   Kantharuban Sivalingam : CASSCF convergence, NEVPT2, FIC-MRCI
   Bernardo de Souza      : ESD, SOC TD-DFT
   Georgi Stoychev        : AutoAux, RI-MP2 NMR, DLPNO-MP2 response
   Willem Van den Heuvel  : Paramagnetic NMR
   Boris Wezisla          : Elementary symmetry handling
   Frank Wennmohs         : Technical directorship


 We gratefully acknowledge several colleagues who have allowed us to
 interface, adapt or use parts of their codes:
   Stefan Grimme, W. Hujo, H. Kruse, P. Pracht,  : VdW corrections, initial TS optimization,
                  C. Bannwarth, S. Ehlert          DFT functionals, gCP, sTDA/sTD-DF
   Ed Valeev, F. Pavosevic, A. Kumar             : LibInt (2-el integral package), F12 methods
   Garnet Chan, S. Sharma, J. Yang, R. Olivares  : DMRG
   Ulf Ekstrom                                   : XCFun DFT Library
   Mihaly Kallay                                 : mrcc  (arbitrary order and MRCC methods)
   Jiri Pittner, Ondrej Demel                    : Mk-CCSD
   Frank Weinhold                                : gennbo (NPA and NBO analysis)
   Christopher J. Cramer and Donald G. Truhlar   : smd solvation model
   Lars Goerigk                                  : TD-DFT with DH, B97 family of functionals
   V. Asgeirsson, H. Jonsson                     : NEB implementation
   FAccTs GmbH                                   : IRC, NEB, NEB-TS, DLPNO-Multilevel, CI-OPT
                                                   MM, QMMM, 2- and 3-layer-ONIOM, Crystal-QMMM,
                                                   LR-CPCM, SF, NACMEs, symmetry and pop. for TD-DFT,
                                                   nearIR, NL-DFT gradient (VV10), updates on ESD,
                                                   ML-optimized integration grids
   S Lehtola, MJT Oliveira, MAL Marques          : LibXC Library
   Liviu Ungur et al                             : ANISO software


 Your calculation uses the libint2 library for the computation of 2-el integrals
 For citations please refer to: http://libint.valeyev.net

 Your ORCA version has been built with support for libXC version: 5.1.0
 For citations please refer to: https://tddft.org/programs/libxc/

 This ORCA versions uses:
   CBLAS   interface :  Fast vector & matrix operations
   LAPACKE interface :  Fast linear algebra routines
   SCALAPACK package :  Parallel linear algebra routines
   Shared memory     :  Shared parallel matrices
   BLAS/LAPACK       :  OpenBLAS 0.3.15  USE64BITINT DYNAMIC_ARCH NO_AFFINITY SkylakeX SINGLE_THREADED
        Core in use  :  SkylakeX
   Copyright (c) 2011-2014, The OpenBLAS Project




################################################################################


                                COMPOUND JOB MainJOB 
Basename: c2h5oh_lw1x_Compound_0

################################################################################

================================================================================
                                       INPUT FILE
================================================================================
NAME = c2h5oh_lw1x_Compound_0.inp
|  1> %Maxcore 1000
|  2>  %Pal nprocs 5 End
|  3>  
|  4>  * xyz 0 1
|  5>  C        1.174266   -0.402393    0.000000 
|  6>  C        0.000000    0.553968    0.000000 
|  7>  O       -1.198609   -0.219376    0.000000 
|  8>  H       -1.951507    0.377618    0.000000 
|  9>  H        0.042676    1.200562    0.884607 
| 10>  H        0.042676    1.200562   -0.884607 
| 11>  H        2.116030    0.148166    0.000000 
| 12>  H        1.146699   -1.040676    0.883284 
| 13>  H        1.146699   -1.040676   -0.883284 
| 14>  *
| 15>  
| 16> 
| 17>                          ****END OF INPUT****
================================================================================
================================================================================

----- Orbital basis set information -----
Your calculation utilizes the basis: def2-SVP
   F. Weigend and R. Ahlrichs, Phys. Chem. Chem. Phys. 7, 3297 (2005).



################################################################################


                                COMPOUND JOB  1 
Basename: c2h5oh_lw1x_Compound_1
NOTE: please remember that MaxCore and PAL settings will be ignored.

################################################################################

================================================================================
                                       INPUT FILE
================================================================================
NAME = c2h5oh_lw1x_Compound_1.inp
|  1>     ! DefGrid3 RIJCOSX TightPNO DLPNO-CCSD(T1)-F12 MiniPrint NoPop
|  2>     %Basis
|  3>       Basis "maug-cc-pV(D+d)Z"
|  4>       AuxJ  "AutoAux"
|  5>       AuxC  "AutoAux"
|  6>       CABS  "AutoAux"
|  7>     End
|  8> 
|  9>                          ****END OF INPUT****
================================================================================
Warning! AutoAux has not been tested for CABS - use at your own risk!
================================================================================

----- Orbital basis set information -----
Your calculation utilizes the basis: jun-cc-pV(D+d)Z 
  E. Papajak, D. G. Truhlar, J. Chem. Theory Comput. 7, 10-18 (2011).

----- AuxJ basis set information -----
Your calculation utilizes the AutoAux generation procedure.
  G. L. Stoychev, A. A. Auer, F. Neese, J. Chem. Theory Comput. 13, 554 (2017)

----- AuxC basis set information -----
Your calculation utilizes the AutoAux generation procedure.
  G. L. Stoychev, A. A. Auer, F. Neese, J. Chem. Theory Comput. 13, 554 (2017)

----- CABS information -----
Your calculation utilizes the AutoAux generation procedure.
  G. L. Stoychev, A. A. Auer, F. Neese, J. Chem. Theory Comput. 13, 554 (2017)


                    <<< The CABS basis set will be decontracted >>>

================================================================================
                                        WARNINGS
                       Please study these warnings very carefully!
================================================================================


WARNING: Post HF methods need fully converged wavefunctions
  ===> : Setting SCFConvForced true
         You can overwrite this default with %scf ConvForced false 


WARNING: MDCI localization with Augmented Hessian Foster-Boys
  ===> : Switching off randomization!

INFO   : the flag for use of the SHARK integral package has been found!


                       ****************************
                       * Single Point Calculation *
                       ****************************

---------------------------------
CARTESIAN COORDINATES (ANGSTROEM)
---------------------------------
  C      1.174266   -0.402393    0.000000
  C      0.000000    0.553968    0.000000
  O     -1.198609   -0.219376    0.000000
  H     -1.951507    0.377618    0.000000
  H      0.042676    1.200562    0.884607
  H      0.042676    1.200562   -0.884607
  H      2.116030    0.148166    0.000000
  H      1.146699   -1.040676    0.883284
  H      1.146699   -1.040676   -0.883284

----------------------------
CARTESIAN COORDINATES (A.U.)
----------------------------
  NO LB      ZA    FRAG     MASS         X           Y           Z
   0 C     6.0000    0    12.011    2.219041   -0.760413    0.000000
   1 C     6.0000    0    12.011    0.000000    1.046848    0.000000
   2 O     8.0000    0    15.999   -2.265043   -0.414561    0.000000
   3 H     1.0000    0     1.008   -3.687814    0.713595    0.000000
   4 H     1.0000    0     1.008    0.080646    2.268733    1.671665
   5 H     1.0000    0     1.008    0.080646    2.268733   -1.671665
   6 H     1.0000    0     1.008    3.998717    0.279993    0.000000
   7 H     1.0000    0     1.008    2.166947   -1.966593    1.669165
   8 H     1.0000    0     1.008    2.166947   -1.966593   -1.669165



           ************************************************************
           *        Program running with 5 parallel MPI-processes     *
           *              working on a common directory               *
           ************************************************************
------------------------------------------------------------------------------
                   ___                                                        
                  /   \      - P O W E R E D   B Y -                         
                 /     \                                                     
                 |  |  |   _    _      __       _____    __    __             
                 |  |  |  | |  | |    /  \     |  _  \  |  |  /  |          
                  \  \/   | |  | |   /    \    | | | |  |  | /  /          
                 / \  \   | |__| |  /  /\  \   | |_| |  |  |/  /          
                |  |  |   |  __  | /  /__\  \  |    /   |      \           
                |  |  |   | |  | | |   __   |  |    \   |  |\   \          
                \     /   | |  | | |  |  |  |  | |\  \  |  | \   \       
                 \___/    |_|  |_| |__|  |__|  |_| \__\ |__|  \__/        
                                                                              
                      - O R C A' S   B I G   F R I E N D -                    
                                      &                                       
                       - I N T E G R A L  F E E D E R -                       
                                                                              
 v1 FN, 2020, v2 2021                                                         
------------------------------------------------------------------------------


Reading SHARK input file c2h5oh_lw1x_Compound_1.SHARKINP.tmp ... ok
----------------------
SHARK INTEGRAL PACKAGE
----------------------

Number of atoms                             ...      9
Number of basis functions                   ...     84
Number of shells                            ...     42
Maximum angular momentum                    ...      2
Integral batch strategy                     ... SHARK/LIBINT Hybrid
RI-J (if used) integral strategy            ... SPLIT-RIJ (Revised 2003 algorithm where possible)
Printlevel                                  ...      1
Contraction scheme used                     ... SEGMENTED contraction
Coulomb Range Separation                    ... NOT USED
Exchange Range Separation                   ... NOT USED
Finite Nucleus Model                        ... NOT USED
Auxiliary Coulomb fitting basis             ... AVAILABLE
   # of basis functions in Aux-J            ...    521
   # of shells in Aux-J                     ...    203
   Maximum angular momentum in Aux-J        ...      3
Auxiliary J/K fitting basis                 ... NOT available
Auxiliary Correlation fitting basis         ... AVAILABLE
   # of basis functions in Aux-C            ...    521
   # of shells in Aux-C                     ...    203
   Maximum angular momentum in Aux-C        ...      3
Auxiliary 'external' fitting basis          ... NOT available
Integral threshold                          ...     1.000000e-10
Primitive cut-off                           ...     1.000000e-11
Primitive pair pre-selection threshold      ...     1.000000e-11

Calculating pre-screening integrals         ... done (  0.1 sec) Dimension = 42
Organizing shell pair data                  ... done (  0.2 sec)
Shell pair information
Total number of shell pairs                 ...       903
Shell pairs after pre-screening             ...       903
Total number of primitive shell pairs       ...      5448
Primitive shell pairs kept                  ...      4363
          la=0 lb=0:    300 shell pairs
          la=1 lb=0:    360 shell pairs
          la=1 lb=1:    120 shell pairs
          la=2 lb=0:     72 shell pairs
          la=2 lb=1:     45 shell pairs
          la=2 lb=2:      6 shell pairs

Calculating one electron integrals          ... done (  0.0 sec)
Calculating RI/J V-Matrix + Cholesky decomp.... done (  0.1 sec)
Calculating RI/C V-Matrix + Cholesky decomp.... done (  0.0 sec)
Calculating Nuclear repulsion               ... done (  0.0 sec) ENN=     81.790161863375 Eh

SHARK setup successfully completed in   0.5 seconds

Maximum memory used throughout the entire GTOINT-calculation: 12.2 MB


           ************************************************************
           *        Program running with 5 parallel MPI-processes     *
           *              working on a common directory               *
           ************************************************************

Diagonalization of the overlap matrix:
Smallest eigenvalue                        ... 3.392e-04
Time for diagonalization                   ...    0.018 sec
Threshold for overlap eigenvalues          ... 1.000e-08
Number of eigenvalues below threshold      ... 0
Time for construction of square roots      ...    0.251 sec
Total time needed                          ...    0.272 sec

Time for model grid setup =    1.141 sec

Loading Hartree-Fock densities                     ... done
Calculating cut-offs                               ... done
Initializing the effective Hamiltonian             ... done
Setting up the integral package (SHARK)            ... done
Starting the Coulomb interaction                   ... done (   0.3 sec)
Reading the grid                                   ... done
Mapping shells                                     ... done
Starting the XC term evaluation                    ... done (   0.0 sec)
Transforming the Hamiltonian                       ... done (   0.0 sec)
Diagonalizing the Hamiltonian                      ... done (   0.0 sec)
Back transforming the eigenvectors                 ... done (   0.0 sec)
Now organizing SCF variables                       ... done
--------------------
COSX GRID GENERATION
--------------------

GRIDX 1
-------
General Integration Accuracy     IntAcc      ... 4.020
Radial Grid Type                 RadialGrid  ... OptM3 with GC (2021)
Angular Grid (max. ang.)         AngularGrid ... 2 (Lebedev-110)
Angular grid pruning method      GridPruning ... 4 (adaptive)
Weight generation scheme         WeightScheme... Becke
Basis function cutoff            BFCut       ... 1.0000e-10
Integration weight cutoff        WCut        ... 1.0000e-14
Angular grids for H and He will be reduced by one unit
Partially contracted basis set               ... on
Rotationally invariant grid construction     ... off

Total number of grid points                  ...    11318
Total number of batches                      ...      181
Average number of points per batch           ...       62
Average number of grid points per atom       ...     1258
UseSFitting                                  ... on

GRIDX 2
-------
General Integration Accuracy     IntAcc      ... 4.338
Radial Grid Type                 RadialGrid  ... OptM3 with GC (2021)
Angular Grid (max. ang.)         AngularGrid ... 3 (Lebedev-194)
Angular grid pruning method      GridPruning ... 4 (adaptive)
Weight generation scheme         WeightScheme... Becke
Basis function cutoff            BFCut       ... 1.0000e-10
Integration weight cutoff        WCut        ... 1.0000e-14
Angular grids for H and He will be reduced by one unit
Partially contracted basis set               ... on
Rotationally invariant grid construction     ... off

Total number of grid points                  ...    24528
Total number of batches                      ...      387
Average number of points per batch           ...       63
Average number of grid points per atom       ...     2725
UseSFitting                                  ... on

GRIDX 3
-------
General Integration Accuracy     IntAcc      ... 4.871
Radial Grid Type                 RadialGrid  ... OptM3 with GC (2021)
Angular Grid (max. ang.)         AngularGrid ... 4 (Lebedev-302)
Angular grid pruning method      GridPruning ... 4 (adaptive)
Weight generation scheme         WeightScheme... Becke
Basis function cutoff            BFCut       ... 1.0000e-10
Integration weight cutoff        WCut        ... 1.0000e-14
Angular grids for H and He will be reduced by one unit
Partially contracted basis set               ... on
Rotationally invariant grid construction     ... off

Total number of grid points                  ...    48260
Total number of batches                      ...      759
Average number of points per batch           ...       63
Average number of grid points per atom       ...     5362
UseSFitting                                  ... on

Time for X-Grid setup             =    0.832 sec

 re-compute Schwartz prescreening matrix in partically contracted basis (1) ...done (   0.167 sec)
--------------
SCF ITERATIONS
--------------
ITER       Energy         Delta-E        Max-DP      RMS-DP      [F,P]     Damp
               ***  Starting incremental Fock matrix formation  ***
  0   -153.9365209068   0.000000000000 0.05485508  0.00247928  0.2247069 0.7000
  1   -153.9960077915  -0.059486884678 0.04146493  0.00190423  0.1337097 0.7000
                               ***Turning on DIIS***
  2   -154.0306711767  -0.034663385272 0.08774737  0.00409176  0.0788041 0.0000
  3   -153.7628123674   0.267858809363 0.02630225  0.00107015  0.0475687 0.0000
  4   -154.0771404825  -0.314328115089 0.00432995  0.00029146  0.0066982 0.0000
  5   -154.0946365681  -0.017496085666 0.00257297  0.00013756  0.0039170 0.0000
                      *** Initiating the SOSCF procedure ***
                           *** Shutting down DIIS ***
                      *** Re-Reading the Fockian *** 
                      *** Removing any level shift *** 
ITER      Energy       Delta-E        Grad      Rot      Max-DP    RMS-DP
  6   -154.10138464  -0.0067480695  0.000625  0.000625  0.001411  0.000086
               *** Restarting incremental Fock matrix formation ***
  7   -154.10011389   0.0012707463  0.000087  0.000124  0.001190  0.000041
                 **** Energy Check signals convergence ****
              ***Rediagonalizing the Fockian in SOSCF/NRSCF***

               *****************************************************
               *                     SUCCESS                       *
               *           SCF CONVERGED AFTER   8 CYCLES          *
               *****************************************************

Old exchange energy                            =    -20.760895968 Eh
New exchange energy                            =    -20.760898105 Eh
Exchange energy change after final integration =     -0.000002137 Eh
Total energy after final integration           =   -154.100116341 Eh
Final COS-X integration done in                =     1.213 sec
Total Energy       :         -154.10011634 Eh           -4193.27735 eV
  Last Energy change         ...   -3.1272e-07  Tolerance :   1.0000e-06
  Last MAX-Density change    ...    1.3323e-15  Tolerance :   1.0000e-05
             **** THE GBW FILE WAS UPDATED (c2h5oh_lw1x_Compound_1.gbw) ****
             **** DENSITY c2h5oh_lw1x_Compound_1.scfp WAS UPDATED ****
             **** ENERGY FILE WAS UPDATED (c2h5oh_lw1x_Compound_1.en.tmp) ****
             **** THE GBW FILE WAS UPDATED (c2h5oh_lw1x_Compound_1.gbw) ****
             **** DENSITY c2h5oh_lw1x_Compound_1.scfp WAS UPDATED ****
----------------
ORBITAL ENERGIES
----------------

  NO   OCC          E(Eh)            E(eV) 
   0   2.0000     -20.563408      -559.5588 
   1   2.0000     -11.281688      -306.9903 
   2   2.0000     -11.220125      -305.3151 
   3   2.0000      -1.360010       -37.0078 
   4   2.0000      -1.014466       -27.6050 
   5   2.0000      -0.836566       -22.7641 
   6   2.0000      -0.700622       -19.0649 
   7   2.0000      -0.644741       -17.5443 
   8   2.0000      -0.570952       -15.5364 
   9   2.0000      -0.533390       -14.5143 
  10   2.0000      -0.524692       -14.2776 
  11   2.0000      -0.489094       -13.3089 
  12   2.0000      -0.442567       -12.0429 
  13   0.0000       0.063679         1.7328 
  14   0.0000       0.080505         2.1907 
  15   0.0000       0.095652         2.6028 
  16   0.0000       0.101032         2.7492 
  17   0.0000       0.127611         3.4725 
  18   0.0000       0.128920         3.5081 
  19   0.0000       0.136105         3.7036 
  20   0.0000       0.219875         5.9831 
  21   0.0000       0.226659         6.1677 
  22   0.0000       0.254499         6.9253 
  23   0.0000       0.266505         7.2520 
  24   0.0000       0.298993         8.1360 
  25   0.0000       0.320426         8.7192 
  26   0.0000       0.351797         9.5729 
  27   0.0000       0.358511         9.7556 
  28   0.0000       0.376340        10.2407 
  29   0.0000       0.393226        10.7002 
  30   0.0000       0.406885        11.0719 
  31   0.0000       0.445106        12.1119 
  32   0.0000       0.502050        13.6615 
  33   0.0000       0.695573        18.9275 
  34   0.0000       0.703890        19.1538 
  35   0.0000       0.762644        20.7526 
  36   0.0000       0.816724        22.2242 
  37   0.0000       0.835567        22.7369 
  38   0.0000       0.857951        23.3460 
  39   0.0000       0.916844        24.9486 
  40   0.0000       0.931637        25.3511 
  41   0.0000       0.935073        25.4446 
  42   0.0000       1.013072        27.5671 
  43   0.0000       1.039827        28.2951 
  44   0.0000       1.114093        30.3160 
  45   0.0000       1.158155        31.5150 
  46   0.0000       1.167394        31.7664 
  47   0.0000       1.250377        34.0245 
  48   0.0000       1.444193        39.2985 
  49   0.0000       1.455757        39.6132 
  50   0.0000       1.469146        39.9775 
  51   0.0000       1.478901        40.2429 
  52   0.0000       1.585116        43.1332 
  53   0.0000       1.602201        43.5981 
  54   0.0000       1.683453        45.8091 
  55   0.0000       1.692586        46.0576 
  56   0.0000       1.794035        48.8182 
  57   0.0000       1.870825        50.9077 
  58   0.0000       1.921578        52.2888 
  59   0.0000       1.924403        52.3657 
  60   0.0000       1.965167        53.4749 
  61   0.0000       1.968942        53.5776 
  62   0.0000       1.990552        54.1657 
  63   0.0000       1.993755        54.2528 
  64   0.0000       2.035673        55.3935 
  65   0.0000       2.103838        57.2483 
  66   0.0000       2.213063        60.2205 
  67   0.0000       2.255658        61.3796 
  68   0.0000       2.301242        62.6200 
  69   0.0000       2.346171        63.8426 
  70   0.0000       2.523853        68.6775 
  71   0.0000       2.529885        68.8417 
  72   0.0000       2.555533        69.5396 
  73   0.0000       2.602521        70.8182 
  74   0.0000       2.785514        75.7977 
  75   0.0000       2.816789        76.6487 
  76   0.0000       2.839139        77.2569 
  77   0.0000       2.923367        79.5489 
  78   0.0000       2.925741        79.6135 
  79   0.0000       3.316557        90.2481 
  80   0.0000       3.401422        92.5574 
  81   0.0000       3.485992        94.8587 
  82   0.0000       3.626522        98.6827 
  83   0.0000       4.129336       112.3649 
Total SCF time: 0 days 0 hours 0 min 19 sec 

Maximum memory used throughout the entire SCF-calculation: 47.4 MB


           ************************************************************
           *        Program running with 5 parallel MPI-processes     *
           *              working on a common directory               *
           ************************************************************


------------------------------------------------------------------------------- 
                              ORCA-MATRIX DRIVEN CI                            
------------------------------------------------------------------------------- 


Wavefunction type
-----------------
Correlation treatment                      ...      CCSD     
Single excitations                         ... ON
Orbital optimization                       ... OFF
Calculation of Z vector                    ... OFF
Calculation of Brueckner orbitals          ... OFF
Perturbative triple excitations            ... ON
Calculation of F12 correction              ... ON
   Using RI for F12 correction             ... ON
   GSO occupation number cut-off           ... 0.000e+00
Frozen core treatment                      ... chemical core (6 el)
Reference Wavefunction                     ... RHF
  Internal Orbitals:     3 ...   12 ( 10 MO's/ 20 electrons)
  Virtual  Orbitals:    13 ...   83 ( 71 MO's              )
Number of AO's                             ...     84
Number of electrons                        ...     26
Number of correlated electrons             ...     20

Algorithmic settings
--------------------
Integral transformation                    ... All integrals via the RI transformation
K(C) Formation                             ... RI-DLPNO
   PNO-Integral Storage                    ... ON DISK
   PNO occupation number cut-off           ... 1.000e-07
   Singles PNO occupation number cut-off   ... 3.000e-09
   PNO Mulliken prescreening cut-off       ... 1.000e-03
   Domain cut-off (Mulliken population)    ... 1.000e-03
   PNO Normalization                       ...    1
Maximum number of iterations               ...        50
Convergence tolerance (max. residuum)      ... 2.500e-05
Level shift for amplitude update           ... 2.000e-01
Maximum number of DIIS vectors             ...         7
DIIS turned on at iteration                ...         0
Damping before turning on DIIS             ...     0.500
Damping after turning on DIIS              ...     0.000
Pair specific amplitude update             ... OFF
Natural orbital iterations                 ... OFF
Perturbative natural orbital generation    ... OFF
Printlevel                                 ... 2

Singles Fock matrix elements calculated using PNOs.

Memory handling:
----------------
Maximum memory for working arrays          ...   1000 MB
Data storage in matrix containers          ... UNCOMPRESSED
Data type for integral storage             ... DOUBLE
In-Core Storage of quantities:
   Amplitudes+Sigma Vector      ... NO
   J+K operators                ... NO
   DIIS vectors                 ... NO
   3-external integrals         ... NO
   4-external integrals         ... NO

Localization treatment:
-----------------------
Localization option                        ...    6
Localization threshhold                    ... -1.0e+00
Using relative localization threshhold     ... 1.0e-08
Neglect threshold for strong pairs         ... 1.000e-05 Eh
Prescreening threshold for very weak pairs ... 1.000e-07 Eh

Initializing the integral package          ... done
Localizing the valence orbitals
------------------------------------------------------------------------------
                           ORCA ORBITAL LOCALIZATION
------------------------------------------------------------------------------

Input orbitals are from                  ... c2h5oh_lw1x_Compound_1.gbw
Output orbitals are to                   ... c2h5oh_lw1x_Compound_1.loc
Max. number of iterations                ... 128
Localizations seeded randomly            ... off
Convergence tolerance                    ... 1.000e-06
Using relative localization threshhold   ... 1.000e-08
Treshold for strong local MOs            ... 9.500e-01
Treshold for bond MOs                    ... 8.500e-01
Operator                                 ... 0
Orbital range for localization           ... 3 to 12
Localization criterion                   ... FOSTER-BOYS (AUGMENTED HESSIAN)
Doing the dipole integrals     ... o.k.
Initial value of the localization sum :    54.155599
ITERATION   0 : L=   61.9127233107 DL=  7.76e+00 (AVERGE_DL)=    0.4151873589 
ITERATION   1 : L=   62.9469111022 DL=  1.03e+00 (AVERGE_DL)=    0.1515979912 
ITERATION   2 : L=   62.9906440612 DL=  4.37e-02 (AVERGE_DL)=    0.0311744051 
ITERATION   3 : L=   62.9914993037 DL=  8.55e-04 (AVERGE_DL)=    0.0043595172 
ITERATION   4 : L=   62.9915128411 DL=  1.35e-05 (AVERGE_DL)=    0.0005484797 
ITERATION   5 : L=   62.9915131889 DL=  3.48e-07 (AVERGE_DL)=    0.0000879168 
LOCALIZATION SUM CONVERGED

------------------------------------------------------
AUGMENTED HESSIAN OPTIMIZATION OF FOSTER-BOYS ORBITALS
------------------------------------------------------

Spin operator:           0
Orbital window:          3 to 12
Number of iterations:    128
Gradient tolerance:      1.000e-06
Number of pairs:         45
Davidson threshold:      2000
Diagonalization method:  LAPACK
Iter:    0   L: 62.9915131889   Grad. norm: 3.866049e-04
   *** Likely close to a maximum now. ***
       Augmented Hessian eigenvalues:  1.99e-08 -1.53e+00 -3.69e+00 -5.31e+00 ... 
Iter:    1   L: 62.9915131988   Grad. norm: 5.886507e-09
LOCALIZATION HAS CONVERGED.

Eigenvalues of the Hessian:
  0 -1.527e+00
  1 -3.691e+00
  2 -5.305e+00
  3 -5.717e+00
  4 -7.657e+00
  5 -1.037e+01
  6 -1.706e+01
  7 -1.773e+01
  8 -1.782e+01
  9 -1.840e+01
    ...


------------------------------------------------------------------------------- 
                    LOCALIZED MOLECULAR ORBITAL COMPOSITIONS                   
------------------------------------------------------------------------------- 

The Mulliken populations for each LMO on each atom are computed
The LMO`s will be ordered according to atom index and type
  (A) Strongly localized MO`s have populations of >=0.950 on one atom
  (B) Two center bond orbitals have populations of >=0.850 on two atoms
  (C) Other MO`s are considered to be `delocalized`

FOUND  -   2 strongly local MO`s
       -   8 two center bond MO`s
       -   0 significantly delocalized MO`s

Rather strongly localized orbitals:
MO   4:   2O  -   1.016531
MO   3:   2O  -   1.016531
Bond-like localized orbitals:
MO  12:   8H  -   0.478220  and   0C  -   0.548950
MO  11:   7H  -   0.478220  and   0C  -   0.548950
MO  10:   6H  -   0.488107  and   0C  -   0.537703
MO   9:   5H  -   0.500993  and   1C  -   0.531150
MO   8:   4H  -   0.500993  and   1C  -   0.531150
MO   7:   3H  -   0.386553  and   2O  -   0.618681
MO   6:   2O  -   0.636025  and   1C  -   0.371501
MO   5:   1C  -   0.550344  and   0C  -   0.496534
Localized MO's were stored in: c2h5oh_lw1x_Compound_1.loc

Localizing the core orbitals
------------------------------------------------------------------------------
                           ORCA ORBITAL LOCALIZATION
------------------------------------------------------------------------------

Input orbitals are from                  ... c2h5oh_lw1x_Compound_1.loc
Output orbitals are to                   ... c2h5oh_lw1x_Compound_1.loc
Max. number of iterations                ... 128
Localizations seeded randomly            ... off
Convergence tolerance                    ... 1.000e-06
Using relative localization threshhold   ... 1.000e-08
Treshold for strong local MOs            ... 9.500e-01
Treshold for bond MOs                    ... 8.500e-01
Operator                                 ... 0
Orbital range for localization           ... 0 to 2
Localization criterion                   ... FOSTER-BOYS (AUGMENTED HESSIAN)
Doing the dipole integrals     ... o.k.
Initial value of the localization sum :    11.900325
ITERATION   0 : L=   11.9003255076 DL=  3.43e-07 (AVERGE_DL)=    0.0003381954 
LOCALIZATION SUM CONVERGED

------------------------------------------------------
AUGMENTED HESSIAN OPTIMIZATION OF FOSTER-BOYS ORBITALS
------------------------------------------------------

Spin operator:           0
Orbital window:          0 to 2
Number of iterations:    128
Gradient tolerance:      1.000e-06
Number of pairs:         3
Davidson threshold:      2000
Diagonalization method:  LAPACK
Iter:    0   L: 11.9003255076   Grad. norm: 4.203136e-09
   *** Likely close to a maximum now. ***
       Augmented Hessian eigenvalues:  5.32e-19 -2.91e+01 -3.28e+01 -8.09e+01
Iter:    1   L: 11.9003255076   Grad. norm: 3.121516e-21
LOCALIZATION HAS CONVERGED.

Eigenvalues of the Hessian:
  0 -2.906e+01
  1 -3.276e+01
  2 -8.091e+01


------------------------------------------------------------------------------- 
                    LOCALIZED MOLECULAR ORBITAL COMPOSITIONS                   
------------------------------------------------------------------------------- 

The Mulliken populations for each LMO on each atom are computed
The LMO`s will be ordered according to atom index and type
  (A) Strongly localized MO`s have populations of >=0.950 on one atom
  (B) Two center bond orbitals have populations of >=0.850 on two atoms
  (C) Other MO`s are considered to be `delocalized`

FOUND  -   3 strongly local MO`s
       -   0 two center bond MO`s
       -   0 significantly delocalized MO`s

Rather strongly localized orbitals:
MO   2:   2O  -   1.000001
MO   1:   1C  -   0.998687
MO   0:   0C  -   0.999102
Localized MO's were stored in: c2h5oh_lw1x_Compound_1.loc

Warning: reference  - re-canonicalizations have been set to INT 1 VIRT 1
Warning: internal orbitals are localized - no re-canonicalization of internal orbitals
Warning: UsePNO is turned on - no re-canonicalization of internal and virtual orbitals

--------------------------
CLOSED-SHELL FOCK OPERATOR
--------------------------

Restoring SHARK [2] ... ok
Entering RIJCOSX section for the Fock matrix
Trying to retrieve the full J-matrix              ... done
Updating the Fock matrix                          ... done
Making the frozen core Coulomb matrix             ... SHARKdone
Retrieving the full K-matrix                      ... done
Calculating the frozen core K-matrix              ... done
Updating the Fock matrix                          ... done
Time needed for Fock operator              ...            1.471 sec
Reference energy                           ...   -154.100086226

------------------------------
Initializing F12 data
------------------------------

Mapping basis set                  ... done
Dimension of the orbital basis set  = 84
Dimension of the CABS basis set     = 521
Dimension of the AUX basis set      = 521
Threshold for CABS orthogonalization = 1.000e-08
Will use an exponential correlation factor -Exp(-gamma r12)/gamma (gamma= 1.200) fit to 6 Gaussians 
Correlation factor:   
  NGauss  :          6      
  Gaussian expansion: 
    a(0)=     0.275538291  d(0)=    -0.219608291 
    a(1)=     1.140545861  d(1)=    -0.254494187 
    a(2)=     3.958256986  d(2)=    -0.154545985 
    a(3)=    13.126859124  d(3)=    -0.093273119 
    a(4)=    49.287410844  d(4)=    -0.057916694 
    a(5)=   272.920095267  d(5)=    -0.035942168 
Calculating one-electron matrices                       ... done (      0.2 sec)
Calculating pre-screening matrices:                     ...
       .... 1/r12 done          (      0.8 sec)
       .... f12/r12 done        (      0.4 sec)
       .... f12 done            (      0.1 sec)
       .... f12^2 done          (      0.3 sec)
       .... [f12,[T1,f12]] done (      0.3 sec)
                                                        ... done (      1.9 sec)
Making CABS spaces                                      ... done (      0.2 sec)
Calculating 2-index 2-center F12 integrals              ... 
Two index explicit correlation integrals  op=0          ... done (      0.2 sec) 
Two index explicit correlation integrals  op=1          ... done (      0.1 sec) 
Two index explicit correlation integrals  op=2          ... done (      0.1 sec) 
Two index explicit correlation integrals  op=3          ... done (      0.1 sec) 
Two index explicit correlation integrals  op=4          ... done (      0.1 sec) 
                                                            done (      0.5 sec)

--------------
DLPNO SETTINGS (2015 fully linear scaling implementation)
--------------

TCutMKN:           1.000e-03
TCutPAO:           1.000e-03
TCutPNO:           1.000e-07
TCutPNOSingles:    3.000e-09
TCutEN:            9.700e-01
TCutPAOExt:        1.000e-01
TCutPairs:         1.000e-05
TCutPre:           1.000e-07
TCutOSV:           1.000e-06
TCutDOij:          1.000e-05
TCutDO:            5.000e-03
TCutC:             1.000e-04
TCutCPAO:          1.000e-03
TCutCMO:           1.000e-03
TScaleDOMP2PreScr: 2.000e+00
TScaleMKNMP2PreScr:1.000e+01
TScalePNOMP2PreScr:1.000e+00
PAO overlap thresh 1.000e-08
Using PNOs for Singles Fock computation
Use new domains
Use fully linear algorithm
TCutTNO:           1.000e-09
TCutMP2Pairs:      1.000e-06
TCutDOStrong:      2.000e-03
TCutMKNStrong:     1.000e-02
TCutMKNWeak:       1.000e-01
TCutDOWeak:        4.000e-03
NTCutTNO:          1

--------------------------
Mulliken population of the LMOs            ... ok
Performing proximity check                 ... No problems found
Calculating differential overlap integrals ... ok

--------------------------
ELECTRON PAIR PRESCREENING
--------------------------

Dipole-based pair screening          .... used

   TCutDOij = 1.000000e-05
   TCutPre  = 1.000000e-07
   .... Finished loop over pairs
Total time spent in the prescreening                  ...     0.003 sec
sum of pair energies estimated for screened out pairs ...       0.000000000000 Eh
Thresholds for map construction and integral transformation for crude MP2:
   TCutMKN                    ...     1.0e-02
   TCutDO                     ...     1.0e-02
   TCutPairs                  ...     1.0e-05
   TCutPNO_CrudeMP2           ...     1.0e-07
   TCutPNOSingles_CrudeMP2    ...     3.0e-09
--------------------------------
LOCAL RI TRANSFORMATION (IAVPAO)
--------------------------------

Orbital window:       3 to 12
Number of PAOs:      84
Basis functions:     84 (42 shells)
Aux. functions:     521 (203 shells)
Use SHARK:           on

Processing maps (0.0 sec)
Average map sizes:
   Aux shells -> MOs              10.0
   Aux shells -> PAOs             84.0
   MOs        -> AO shells        42.0
   PAOs       -> AO shells        42.0

Calculating integrals (0.3 sec, 3.345 MB)
Sorting integrals (0.0 sec, 3.339 MB)
Total time for the integral transformation: 0.3 sec
--------------------------------
INITIAL GUESS AND PNO GENERATION
--------------------------------

PNO truncation parameters                   .... 
    PAOOverlapThresh   =        1.000e-08

    TCutPairs          =        1.000e-05
    TCutPNO            =        1.000e-07
    TCutPNOSingles     =        3.000e-09
    TCutMP2Pairs       =        1.000e-06
    TCutMKN            =        1.000e-02
    TCutDO             =        1.000e-02

Pair selection                          .... not used
Type of local MP2 treatment                 .... semi-local MP2
Strategy for PNO selection                  .... occupation number selection
Pair density normalization                  .... MP2 norm
Spin component scaling                      .... not used

   .... Finished loop over pairs
Making pair pair interaction lists          ... done

                       ===========================
                         55 OF   55 PAIRS ARE KEPT CCSD PAIRS
                          0 OF   55 PAIRS ARE KEPT MP2 PAIRS FOR (T)
                          0 OF   55 PAIRS ARE SKIPPED
                       ===========================

Total time spent in the initial guess                 ...     0.210 sec
SL-MP2 correlation energy (all non-screened pairs)    ...      -0.471072211437 Eh

Initial PNO correlation energy                        ...      -0.470966195332 Eh
sum of pair energies prescreened and skipped MP2 pairs...       0.000000000000 Eh
sum of pair energies of crude MP2 skipped pairs only  ...       0.000000000000 Eh
sum of MP2 pair energies for pairs that were not kept ...       0.000000000000 Eh
sum of PNO error estimates for the kept pairs         ...      -0.000106016105 Eh
                                                          --------------------
sum of all corrections                                         -0.000106016105
Initial total correlation energy                               -0.471072211437
Thresholds for map construction and integral transformation for fine MP2 and CCSD(T) calculation:
   TCutMKN   ...     1.0e-03
   TCutDO    ...     5.0e-03
   TCutPairs ...     1.0e-05
   TCutCMO   ...     1.0e-03
   TCutCPAO  ...     1.0e-03

Thresholds for map construction and integral transformation for strong Triples:
   TCutMKN   ...     1.0e-02
   TCutDO    ...     1.0e-02
   TCutCMO   ...     1.0e-03
   TCutCPAO  ...     1.0e-03

Thresholds for map construction and integral transformation for weak Triples:
   TCutMKN   ...     1.0e-01
   TCutDO    ...     2.0e-02
   TCutCMO   ...     1.0e-03
   TCutCPAO  ...     1.0e-03

--------------------------------
LOCAL RI TRANSFORMATION (IAVPAO)
--------------------------------

Orbital window:       3 to 12
Number of PAOs:      84
Basis functions:     84 (42 shells)
Aux. functions:     521 (203 shells)
Use SHARK:           on

Processing maps (0.0 sec)
Average map sizes:
   Aux shells -> MOs              10.0
   Aux shells -> PAOs             84.0
   MOs        -> AO shells        42.0
   PAOs       -> AO shells        42.0

Calculating integrals (0.2 sec, 3.345 MB)
Sorting integrals (0.0 sec, 3.339 MB)
Total time for the integral transformation: 0.2 sec
--------------------------------
INITIAL GUESS AND PNO GENERATION
--------------------------------

PNO truncation parameters                   .... 
    ScaleTCutPNO       =        1.000e-02
    PAOOverlapThresh   =        1.000e-08

    TCutPairs          =        1.000e-05
    TCutPNO            =        1.000e-07
    TCutPNOSingles     =        3.000e-09
    TCutMP2Pairs       =        1.000e-06
    TCutMKN            =        1.000e-03
    TCutDO             =        5.000e-03

Pair selection                          .... not used
Type of local MP2 treatment                 .... full local PMP2
Strategy for PNO selection                  .... occupation number selection
Pair density normalization                  .... MP2 norm
Spin component scaling                      .... not used

PASS-1: Formation of initial guess LMP2 amplitudes
Initial amplitudes guess done. Entering LMP2 iteration loop:
   Max. no of iterations          ...  50
   Energy convergence tolerance   ...    1.0e-07
   Residual convergence tolerance ...    5.0e-07
   Fock matrix cutoff             ...    1.0e-05 Eh
   DIIS convergence acceleration parameters:
        Max # vectors in DIIS     ... 7
        Start iteration of DIIS   ... 0
        Levelshift                ... 2.000e-01
        Damping factor 1          ... 5.000e-01
        Damping factor 2          ... 1.000e+00
   L-MP2 PNO cut-off              ...   1.0e-09
   L-MP2 PNO cut-off (core)       ...   1.0e-11
                           *** Turning on DIIS ***
LMP2-Iter=   0:  ELMP2= -0.480945735898  DE=   9.8e-03 RMAX=   5.0e-03
LMP2-Iter=   1:  ELMP2= -0.485960981757  DE=   5.0e-03 RMAX=   2.0e-03
LMP2-Iter=   2:  ELMP2= -0.486729244918  DE=   7.7e-04 RMAX=   4.8e-04
LMP2-Iter=   3:  ELMP2= -0.486807630345  DE=   7.8e-05 RMAX=   1.1e-04
LMP2-Iter=   4:  ELMP2= -0.486812669266  DE=   5.0e-06 RMAX=   1.6e-05
LMP2-Iter=   5:  ELMP2= -0.486812143585  DE=   5.3e-07 RMAX=   5.0e-06
LMP2-Iter=   6:  ELMP2= -0.486812067760  DE=   7.6e-08 RMAX=   6.1e-07
LMP2-Iter=   7:  ELMP2= -0.486812067899  DE=   1.4e-10 RMAX=   1.9e-07
LMP2-Iter=   8:  ELMP2= -0.486812075105  DE=   7.2e-09 RMAX=   2.4e-08 => CONVERGED
PASS-2: Formation of Pair natural orbitals
   .... Finished loop over pairs

 PNO Occupation Number Statistics: 
  | Av. % of trace(Dij) retained        ...  99.905520108877
  | sigma^2 in % of trace(Dij) retained ...   1.93e-02
  | Av. % of trace(Di) retained         ...  99.999881111619
  | sigma^2 in % of trace(Di) retained  ...   1.23e-09
 Distributions of % trace(Dij) recovered:
  |       >= 99.9  ...    43 ( 78.2 % of all pairs)
  |   [99.0, 99.9) ...    12 ( 21.8 % of all pairs)
 Distributions of % trace(Di) recovered :
  |       >= 99.9  ...    10 (100.0 % of all I-pairs )

Making pair pair interaction lists          ... done

                       ===========================
                         55 OF   55 PAIRS ARE KEPT
                       ===========================

Total time spent in the initial guess                 ...     3.268 sec
L-MP2 correlation energy (all non-screened pairs)     ...      -0.486812075105 Eh
L-MP2 PNO error correction                            ...      -0.000000896295 Eh
                                                          --------------------
Initial total L-MP2 energy (non-screened pairs)       ...      -0.486812971400 Eh

Initial PNO correlation energy                        ...      -0.486718687785 Eh
sum of pair energies estimated for screened out pairs ...       0.000000000000 Eh
sum of MP2 pair energies for pairs that were not kept ...       0.000000000000 Eh
sum of PNO error estimates for the kept pairs         ...      -0.000094283615 Eh
                                                          --------------------
sum of all corrections                                         -0.000094283615
Initial total correlation energy                               -0.486812971400
Thresholds for map construction and integral transformation for fine MP2 and CCSD(T) calculation:
   TCutMKN   ...     1.0e-03
   TCutDO    ...     5.0e-03
   TCutPairs ...     1.0e-05
   TCutCMO   ...     1.0e-03
   TCutCPAO  ...     1.0e-03

Number of pairs in F12 (TCutDOF12 = 3.000e-04)        ...     55

Time for aux screen maps:            0.001
Time for maps after fine MP2:            0.003
-----------------------------
LOCAL RI TRANSFORMATION (IJV)
-----------------------------

Orbital window:       3 to 12
Basis functions:     84 (42 shells)
Aux. functions:     521 (203 shells)
Use SHARK:           on

Processing maps (0.0 sec)
Average map sizes:
   Aux shells -> MOs(i)           10.0
   Aux shells -> MOs(j)           10.0
   MOs        -> AO shells        42.0

Calculating integrals (0.2 sec, 0.403 MB)
Sorting integrals (0.0 sec, 0.398 MB)
Total time for the integral transformation: 0.2 sec
--------------------------------
LOCAL RI TRANSFORMATION (VABPAO)
--------------------------------

Number of PAOs:      84
Basis functions:     84 (42 shells)
Aux. functions:     521 (203 shells)
Use SHARK:           on

Processing maps (0.0 sec)
Average map sizes:
   Aux shells -> PAOs             84.0
   PAOs       -> AO shells        42.0

Calculating integrals (0.3 sec, 28.053 MB)
Finished


-------------------------------------
Pair Pair Term precalculation with     
RI-(ij|mn) and (im|jn) transformation  
ON THE FLY                             
-------------------------------------

   IBatch   1 (of   1)              ... done (    3.441 sec)
Total EXT                           ...           3.441 sec

---------------------
RI-PNO TRANSFORMATION
---------------------

Total Number of PNOs                   ...  1710
Average number of PNOs per pair        ...    31
Maximal number of PNOs per pair        ...    39
   #pairs with  1 -  5 PNOs   :    0
   #pairs with  6 - 10 PNOs   :    0
   #pairs with 11 - 15 PNOs   :    0
   #pairs with 16 - 20 PNOs   :    0
   #pairs with 21 - 25 PNOs   :    9
   #pairs with 26 - 30 PNOs   :   15
   #pairs with 31 - 35 PNOs   :   22
   #pairs with 36 - 40 PNOs   :    9
   #pairs with 41 - 45 PNOs   :    0
   #pairs with 46 - 50 PNOs   :    0

Generation of (ij|ab)[P] integrals            ... on
Generation of (ia|bc)[P],(ja|bc)[P] integrals ... on
Storage of 3 and 4 external integrals         ... on
Generation of ALL (ka|bc)[P] integrals        ... on
Keep RI integrals in memory                   ... off

Ibatch:  1 (of  1)
Starting 2-4 index PNO integral generation ... done

Timings:
Total PNO integral transformation time     ...          1.544 sec
Size of the 3-external file                ...        13 MB
Size of the 4-external file                ...        59 MB
Size of the IKJL file                      ...         0 MB
Size of the all 3-external file            ...        69 MB
Size of the 1-external file                ...         0 MB

Making pair/pair overlap matrices          ... done (    0.093 sec)
Size of the pair overlap file              ... 17 MB
Redoing the guess amplitudes               ... done (    0.030 sec)

-------------------------
FINAL STARTUP INFORMATION
-------------------------

E(0)                                       ...   -154.100086226
E(L-MP2)                                   ...     -0.486812971
E(L-MP2) including corrections             ...     -0.486812971
Initial E(tot)                             ...   -154.586899197
<T|T>                                      ...      0.137014999
Number of pairs included                   ... 55
Total number of pairs                      ... 55

------------------------------------------------
                  RHF COUPLED CLUSTER ITERATIONS
------------------------------------------------

Number of PNO amplitudes to be optimized   ...        54400
Number of non-PNO amplitudes               ...       277255
Untruncated number of regular amplitudes   ...       277255

Iter       E(tot)           E(Corr)          Delta-E          Residual     Time
  0   -154.571151430     -0.470970921      0.015842051      0.018941764   11.17
                           *** Turning on DIIS ***
  1   -154.604270340     -0.504089831     -0.033118910      0.007179654   10.25
  2   -154.620834506     -0.520653997     -0.016564166      0.002310738    8.74
  3   -154.622987585     -0.522807076     -0.002153079      0.001068612    7.80
  4   -154.623629648     -0.523449139     -0.000642063      0.000435123    8.21
  5   -154.623773269     -0.523592759     -0.000143620      0.000176051    8.40
  6   -154.623801797     -0.523621288     -0.000028528      0.000066333    8.34
  7   -154.623803400     -0.523622891     -0.000001603      0.000023617   12.73
               --- The Coupled-Cluster iterations have converged ---
Making OccT1 to AO map ... ok
3-index local transformation (OBS,OBS/AUX) for   op=0   ... done (      0.1 sec)
3-index local transformation (OBS,CABS/AUX) for  op=0   ... done (      0.3 sec)
3-index local transformation (OBS,OBS/AUX) for   op=1   ... done (      0.2 sec)
3-index local transformation (OBS,CABS/AUX) for  op=1   ... done (      0.6 sec)
3-index local transformation (OBS,OBS/AUX) for   op=2   ... done (      0.2 sec)
3-index local transformation (OBS,CABS/AUX) for  op=2   ... done (      0.4 sec)
3-index local transformation (OBS,OBS/AUX) for   op=3   ... done (      0.3 sec)
3-index local transformation (OBS,CABS/AUX) for  op=3   ... done (      1.0 sec)
3-index local transformation (OBS,OBS/AUX) for   op=4   ... done (      0.3 sec)
3-index local transformation (OBS,CABS/AUX) for  op=4   ... done (      1.1 sec)
3-index local transformation (OBS,OBS/AUX) of (pa|X)    ... done (      0.3 sec)
3-index local transformation (OBS_T1,OBS/AUX) for op=0  ... done (      0.1 sec)
3-index local transformation (OBS_T1,OBS/AUX) for op=1  ... done (      0.3 sec)
3-index local transformation (OBS_F,OBS/AUX) for op=2   ... done (      0.2 sec)
3-index local transformation (OBS_F,CABS/AUX)for op=2   ... done (      0.4 sec)
------------------------
RHF DLPNO F12 CORRECTION
------------------------

Doing SCF density matrices                              ... done (      0.0 sec)
Calculating RI Coulomb operators
Retrieving the Coulomb fitting basis                    ... done
       .... OBS/OBS done        (      0.2 sec)
       .... CABS/OBS done       (      0.3 sec)
       .... CABS/CABS done      (      0.4 sec)

F12 OBS GRIDX
-------------

General Integration Accuracy     IntAcc      ... 4.338
Radial Grid Type                 RadialGrid  ... OptM3 with GC (2021)
Angular Grid (max. ang.)         AngularGrid ... 3 (Lebedev-194)
Angular grid pruning method      GridPruning ... 5 (extended)
Weight generation scheme         WeightScheme... Becke
Basis function cutoff            BFCut       ... 1.0000e-10
Integration weight cutoff        WCut        ... 1.0000e-14
Angular grids for H and He will be reduced by one unit
Partially contracted basis set               ... on
Rotationally invariant grid construction     ... off

Total number of grid points                  ...    63492
Total number of batches                      ...      996
Average number of points per batch           ...       63
Average number of grid points per atom       ...     7055

F12 CABS GRIDX
--------------

General Integration Accuracy     IntAcc      ... 4.338
Radial Grid Type                 RadialGrid  ... OptM3 with GC (2021)
Angular Grid (max. ang.)         AngularGrid ... 3 (Lebedev-194)
Angular grid pruning method      GridPruning ... 5 (extended)
Weight generation scheme         WeightScheme... Becke
Basis function cutoff            BFCut       ... 1.0000e-10
Integration weight cutoff        WCut        ... 1.0000e-14
Angular grids for H and He will be reduced by one unit
Partially contracted basis set               ... on
Rotationally invariant grid construction     ... off

Total number of grid points                  ...    63492
Total number of batches                      ...      996
Average number of points per batch           ...       63
Average number of grid points per atom       ...     7055

Calculating COSX Exchange operators
       .... OBS/OBS done        (      1.5 sec)
       .... CABS/OBS done       (      1.6 sec)
       .... CABS/CABS done      (      8.6 sec)
Completing Fock operators                               ... done (      0.0 sec)
Calculating F12 intermediates (incore)                  ... 

WARNING (ORCA_TOOLS): CalcCholeskyLLoc() returned with error 1
                      Potentially linear dependencies in the aux basis!



WARNING (ORCA_TOOLS): CalcCholeskyLLoc() returned with error 1
                      Potentially linear dependencies in the aux basis!



WARNING (ORCA_TOOLS): CalcCholeskyLLoc() returned with error 1
                      Potentially linear dependencies in the aux basis!



WARNING (ORCA_TOOLS): CalcCholeskyLLoc() returned with error 1
                      Potentially linear dependencies in the aux basis!



WARNING (ORCA_TOOLS): CalcCholeskyLLoc() returned with error 1
                      Potentially linear dependencies in the aux basis!



WARNING (ORCA_TOOLS): CalcCholeskyLLoc() returned with error 1
                      Potentially linear dependencies in the aux basis!



WARNING (ORCA_TOOLS): CalcCholeskyLLoc() returned with error 1
                      Potentially linear dependencies in the aux basis!



WARNING (ORCA_TOOLS): CalcCholeskyLLoc() returned with error 1
                      Potentially linear dependencies in the aux basis!



WARNING (ORCA_TOOLS): CalcCholeskyLLoc() returned with error 1
                      Potentially linear dependencies in the aux basis!



WARNING (ORCA_TOOLS): CalcCholeskyLLoc() returned with error 1
                      Potentially linear dependencies in the aux basis!



WARNING (ORCA_TOOLS): CalcCholeskyLLoc() returned with error 1
                      Potentially linear dependencies in the aux basis!


Total T*B*T Contribution              =   0.148299864680

Total V*T MP2 Contribution            =  -0.321404813465

Total V*T CCSD without S Contribution =  -0.277766013146

Total V*T CCSD with S Contribution    =  -0.277159352769

DeltaEC_MP2                           =  -0.173104948785

DeltaEC_CCSD without S                =  -0.129466148466

DeltaEC_CCSD with S                   =  -0.128859488089
Total time of computation of intermediates                       (      5.1 sec)
Calculating correlation correction                      ... done (      0.1 sec)

F12 correction                   :  -0.128859488089
HF basis set correction          :  -0.049085228508
Sum of the two                   :  -0.177944716597

Total time for F12 correction    :    19.175 sec
  .... cleaning up and leaving F12-CCSD

----------------------
COUPLED CLUSTER ENERGY
----------------------

Uncorrected 0th order energy               ...   -154.100086226
F12-HF basis set correction                ...     -0.049085229
Corrected 0th order energy                 ...   -154.149171454

E(CORR)(strong-pairs)                      ...     -0.523622891
E(CORR)(weak-pairs)                        ...     -0.000094284
E(CORR)(corrected)                         ...     -0.523717174
Uncorrected correlation energy             ...     -0.523622891
F12-correction to the correlation energy   ...     -0.128859488
Final F12 correlation energy               ...     -0.652576662

E(TOT)-before F12 corrections              ...   -154.623803400
E(TOT)-after HF correction                 ...   -154.672888629
E(TOT)-after all F12 corrections           ...   -154.801748117

Singles Norm <S|S>**1/2                    ...      0.043076473  
T1 diagnostic                              ...      0.009632192  

------------------
LARGEST AMPLITUDES
------------------
  10-> 24  10-> 24       0.039038
   7-> 21   7-> 21       0.033850
   6-> 16   6-> 16       0.033006
   7-> 13   7-> 13       0.030138
  11-> 15  11-> 15       0.029040
  12-> 15  12-> 15       0.029040
  12-> 24  12-> 24       0.028505
  11-> 24  11-> 24       0.028505
   8-> 23   8-> 23       0.026926
   9-> 23   9-> 23       0.026926
  10-> 24  10-> 15       0.026911
  10-> 15  10-> 24       0.026911
   8-> 16   8-> 16       0.026833
   9-> 16   9-> 16       0.026833
  10-> 15  10-> 15       0.025049
   5-> 25   5-> 25       0.024171


-------------------------------------------
DLPNO BASED TRIPLES CORRECTION
-------------------------------------------

Singles multiplier          ...  1.000000
TCutTNO                     ... 1.000e-09
TCutMP2Pairs                ... 1.000e-06
TCutDOStrong                ... 1.000e-02
TCutMKNStrong               ... 1.000e-02
TCutDOWeak                  ... 2.000e-02
TCutMKNWeak                 ... 1.000e-01

Parameters used in iterative triples
TCutFock                    ... 1.000e-03
TCutWeak                    ... 1.000e-08
TCutWeakGuess               ... 6.000e-06
TCutIter                    ... 1.000e-03
TNOScaleS                   ... 1.000e+01
TNOScaleW                   ... 1.000e+02
ETol                        ... 1.000e-04

Fragment selection                          .... not used
Number of Triples that are to be computed   ...       210

 . . . . . . . . .
10% done  
20% done  
30% done  
40% done  
50% done  
60% done  
70% done  
80% done  
90% done               (      5.880 sec)

-------------------
Triples Iterations:
-------------------

The T1 Strong/Weak pair is = 94/116 

Iter        E(Triple)      Delta-E            Time
  0     0.000000000000    0.012762734513      6.04
  1    -0.013224480186    0.000461745673      7.48
  2    -0.013272901430    0.000048421244      7.03

------------------
TRIPLES CORRECTION
------------------

The Conventional (T0) is    -0.012800558857
The Truncated    (T0) is    -0.012762734513
The corrected     (T) is    -0.013310725774

Triples timings:
Total time for T0               ...     6.264 sec
Total time for Iterative (T)    ...    14.788 sec
Total time of overall (T)       ...    21.951 sec

Triples List generation         ...     0.000 sec
TNO generation                  ...     0.160 sec
Pair density generation         ...     0.001 sec
Look up tables                  ...     0.000 sec
Generating 3-index integrals    ...     1.793 sec
  Make 4-ind.int. from 3-ind.int...     0.871 sec
  Projecting amplitudes (D + S) ...     0.092 sec
  Downprojecting integrals      ...     0.692 sec
  Energy contr. (sum over a,b,c)...     1.814 sec
Fitting ET(->0)                 ...     0.000 sec

Everything after 3-index        ...     4.088 sec

Timing details:
 TNO integrals                  ...     2.554 sec
   Reading 3-index integrals    ...     0.512 sec
   Sorting integrals            ...     0.315 sec
       Sorting integrals 1      ...     0.000 sec
       Sorting integrals 2      ...     0.151 sec
       Sorting integrals 3      ...     0.040 sec
       Sorting integrals 4      ...     0.002 sec
       Sorting integrals 5      ...     0.006 sec
       Sorting integrals 6      ...     0.117 sec
   Calculating local VM**-1/2   ...     0.098 sec
   Orthogonal. integrals        ...     0.223 sec
   Multipl. 3-index integrals   ...     1.406 sec
   All concerning IRIab (w/TNO) ...     0.402 sec

 Calculate W0/W1                ...     0.617 sec
 W 3-ext contribution           ...     0.363 sec
 W 3-int contribution           ...     0.084 sec
 Sorting W                      ...     0.148 sec

 V exchange contribution        ...     0.431 sec

 Timings for Triples without generation
     of 3-index integrals       ...     4.088 sec
       0 weak pairs             ...     4.088 sec
       1 weak pair              ...     0.000 sec
       2 weak pairs             ...     0.000 sec
       3 weak pairs             ...     0.000 sec
  Extra time for extrapolation  ...     0.000 sec

Number of Triples   (0, 1, 2, 3 weak pairs; overall):    210       0       0       0  (   210)
Number of Atoms     (0, 1, 2, 3 weak pairs; overall):    9.0     0.0     0.0     0.0  (     9)
Number of PAOs      (0, 1, 2, 3 weak pairs; overall):   84.0     0.0     0.0     0.0  (    84)
Number of AuxFcns   (0, 1, 2, 3 weak pairs; overall):  399.0     0.0     0.0     0.0  (   521)
Number of TNOs      (0, 1, 2, 3 weak pairs         ):   57.7     0.0     0.0     0.0
Aver. Number of NTNO, Atoms, PAOs, AuxFcns / Triples:    210    57.7     9.0    84.0   399.0

Triples Correction (T)                     ...     -0.013310726
Final correlation energy (without F12)     ...     -0.537027900
Final correlation energy (with F12)        ...     -0.665887388
F12-E(CCSD)                                ...   -154.801748117
F12-E(CCSD(T))                             ...   -154.815058843



------------------------------------------------------------------------------- 
                                     TIMINGS                                   
------------------------------------------------------------------------------- 


Total execution time                   ...      142.823 sec

Localization of occupied MO's          ...        1.777 sec (  1.2%)
Fock Matrix Formation                  ...        1.471 sec (  1.0%)
Global overlap, Fock, MKN matrices     ...        1.000 sec (  0.7%)
Differential overlap integrals         ...        1.585 sec (  1.1%)
Organizing maps                        ...        0.013 sec (  0.0%)
RI 3-index integral generations        ...        1.077 sec (  0.8%)
RI-PNO integral transformation         ...        5.589 sec (  3.9%)
Initial Guess                          ...        3.596 sec (  2.5%)
DIIS Solver                            ...        1.187 sec (  0.8%)
State Vector Update                    ...        0.002 sec (  0.0%)
Sigma-vector construction              ...       75.284 sec ( 52.7%)
  <D|H|D>(0-ext)                       ...       10.918 sec ( 14.5% of sigma)
  <D|H|D>(2-ext Fock)                  ...        0.002 sec (  0.0% of sigma)
  <D|H|D>(2-ext)                       ...        6.630 sec (  8.8% of sigma)
  <D|H|D>(4-ext)                       ...        0.573 sec (  0.8% of sigma)
  <D|H|D>(4-ext-corr)                  ...        1.707 sec (  2.3% of sigma)
  CCSD doubles correction              ...        3.007 sec (  4.0% of sigma)
  <S|H|S>                              ...       10.413 sec ( 13.8% of sigma)
  <S|H|D>(1-ext)                       ...        0.324 sec (  0.4% of sigma)
  <D|H|S>(1-ext)                       ...        0.001 sec (  0.0% of sigma)
  <S|H|D>(3-ext)                       ...        0.173 sec (  0.2% of sigma)
  Fock-dressing                        ...       17.346 sec ( 23.0% of sigma)
  Singles amplitudes                   ...        2.672 sec (  3.5% of sigma)
  (ik|jl)-dressing                     ...       10.124 sec ( 13.4% of sigma)
  (ij|ab),(ia|jb)-dressing             ...        9.506 sec ( 12.6% of sigma)
  Pair energies                        ...        0.017 sec (  0.0% of sigma)
Total Time for computing F12           ...       25.073 sec ( 17.6% of ALL)
Total Time for computing (T)           ...       21.969 sec ( 15.4% of ALL)


Maximum memory used throughout the entire MDCI-calculation: 989.0 MB

-------------------------   --------------------
FINAL SINGLE POINT ENERGY      -154.815058842551
-------------------------   --------------------


                            ***************************************
                            *     ORCA property calculations      *
                            ***************************************


  WARNING: The energy has been calculated at the MDCI level but the densities
           used in the property calculations are still SCF densities
           MDCI response densities have not been calculated 
           use %mdci Density linearized end
           or  %mdci Density unrelaxed end
           or  %mdci Density orbopt end

                                    ---------------------
                                    Active property flags
                                    ---------------------
   (+) Dipole Moment


------------------------------------------------------------------------------
                       ORCA ELECTRIC PROPERTIES CALCULATION
------------------------------------------------------------------------------

Dipole Moment Calculation                       ... on
Quadrupole Moment Calculation                   ... off
Polarizability Calculation                      ... off
GBWName                                         ... c2h5oh_lw1x_Compound_1.gbw
Electron density                                ... c2h5oh_lw1x_Compound_1.scfp
The origin for moment calculation is the CENTER OF MASS  = (-0.102910, -0.034330  0.000000)

-------------
DIPOLE MOMENT
-------------
                                X             Y             Z
Electronic contribution:     -2.58896      -0.16331       0.00000
Nuclear contribution   :      2.67566       0.89256       0.00000
                        -----------------------------------------
Total Dipole Moment    :      0.08671       0.72926       0.00000
                        -----------------------------------------
Magnitude (a.u.)       :      0.73440
Magnitude (Debye)      :      1.86668



--------------------
Rotational spectrum 
--------------------
 
Rotational constants in cm-1:     1.176223     0.312024     0.271644 
Rotational constants in MHz : 35262.282415  9354.254825  8143.687185 

 Dipole components along the rotational axes: 
x,y,z [a.u.] :    -0.007790     0.734354     0.000000 
x,y,z [Debye]:    -0.019801     1.866579     0.000000 

 

Timings for individual modules:

Sum of individual times         ...      173.494 sec (=   2.892 min)
GTO integral calculation        ...        5.535 sec (=   0.092 min)   3.2 %
SCF iterations                  ...       22.587 sec (=   0.376 min)  13.0 %
MDCI module                     ...      145.372 sec (=   2.423 min)  83.8 %


################################################################################


                                COMPOUND JOB  2 
Basename: c2h5oh_lw1x_Compound_2
NOTE: please remember that MaxCore and PAL settings will be ignored.

################################################################################

================================================================================
                                       INPUT FILE
================================================================================
NAME = c2h5oh_lw1x_Compound_2.inp
|  1>     ! DefGrid3 RIJCOSX TightPNO DLPNO-CCSD(T1)-F12 MiniPrint NoPop
|  2>     %Basis
|  3>       Basis "maug-cc-pV(T+d)Z"
|  4>       AuxJ  "AutoAux"
|  5>       AuxC  "AutoAux"
|  6>       CABS  "AutoAux"
|  7>     End
|  8> 
|  9>                          ****END OF INPUT****
================================================================================
Warning! AutoAux has not been tested for CABS - use at your own risk!
================================================================================

----- Orbital basis set information -----
Your calculation utilizes the basis: may-cc-pV(T+d)Z 
  E. Papajak, D. G. Truhlar, J. Chem. Theory Comput. 7, 10-18 (2011).

----- AuxJ basis set information -----
Your calculation utilizes the AutoAux generation procedure.
  G. L. Stoychev, A. A. Auer, F. Neese, J. Chem. Theory Comput. 13, 554 (2017)

----- AuxC basis set information -----
Your calculation utilizes the AutoAux generation procedure.
  G. L. Stoychev, A. A. Auer, F. Neese, J. Chem. Theory Comput. 13, 554 (2017)

----- CABS information -----
Your calculation utilizes the AutoAux generation procedure.
  G. L. Stoychev, A. A. Auer, F. Neese, J. Chem. Theory Comput. 13, 554 (2017)


                    <<< The CABS basis set will be decontracted >>>

================================================================================
                                        WARNINGS
                       Please study these warnings very carefully!
================================================================================


WARNING: Post HF methods need fully converged wavefunctions
  ===> : Setting SCFConvForced true
         You can overwrite this default with %scf ConvForced false 


WARNING: MDCI localization with Augmented Hessian Foster-Boys
  ===> : Switching off randomization!

INFO   : the flag for use of the SHARK integral package has been found!


                       ****************************
                       * Single Point Calculation *
                       ****************************

---------------------------------
CARTESIAN COORDINATES (ANGSTROEM)
---------------------------------
  C      1.174266   -0.402393    0.000000
  C      0.000000    0.553968    0.000000
  O     -1.198609   -0.219376    0.000000
  H     -1.951507    0.377618    0.000000
  H      0.042676    1.200562    0.884607
  H      0.042676    1.200562   -0.884607
  H      2.116030    0.148166    0.000000
  H      1.146699   -1.040676    0.883284
  H      1.146699   -1.040676   -0.883284

----------------------------
CARTESIAN COORDINATES (A.U.)
----------------------------
  NO LB      ZA    FRAG     MASS         X           Y           Z
   0 C     6.0000    0    12.011    2.219041   -0.760413    0.000000
   1 C     6.0000    0    12.011    0.000000    1.046848    0.000000
   2 O     8.0000    0    15.999   -2.265043   -0.414561    0.000000
   3 H     1.0000    0     1.008   -3.687814    0.713595    0.000000
   4 H     1.0000    0     1.008    0.080646    2.268733    1.671665
   5 H     1.0000    0     1.008    0.080646    2.268733   -1.671665
   6 H     1.0000    0     1.008    3.998717    0.279993    0.000000
   7 H     1.0000    0     1.008    2.166947   -1.966593    1.669165
   8 H     1.0000    0     1.008    2.166947   -1.966593   -1.669165



           ************************************************************
           *        Program running with 5 parallel MPI-processes     *
           *              working on a common directory               *
           ************************************************************
------------------------------------------------------------------------------
                   ___                                                        
                  /   \      - P O W E R E D   B Y -                         
                 /     \                                                     
                 |  |  |   _    _      __       _____    __    __             
                 |  |  |  | |  | |    /  \     |  _  \  |  |  /  |          
                  \  \/   | |  | |   /    \    | | | |  |  | /  /          
                 / \  \   | |__| |  /  /\  \   | |_| |  |  |/  /          
                |  |  |   |  __  | /  /__\  \  |    /   |      \           
                |  |  |   | |  | | |   __   |  |    \   |  |\   \          
                \     /   | |  | | |  |  |  |  | |\  \  |  | \   \       
                 \___/    |_|  |_| |__|  |__|  |_| \__\ |__|  \__/        
                                                                              
                      - O R C A' S   B I G   F R I E N D -                    
                                      &                                       
                       - I N T E G R A L  F E E D E R -                       
                                                                              
 v1 FN, 2020, v2 2021                                                         
------------------------------------------------------------------------------


Reading SHARK input file c2h5oh_lw1x_Compound_2.SHARKINP.tmp ... ok
----------------------
SHARK INTEGRAL PACKAGE
----------------------

Number of atoms                             ...      9
Number of basis functions                   ...    186
Number of shells                            ...     72
Maximum angular momentum                    ...      3
Integral batch strategy                     ... SHARK/LIBINT Hybrid
RI-J (if used) integral strategy            ... SPLIT-RIJ (Revised 2003 algorithm where possible)
Printlevel                                  ...      1
Contraction scheme used                     ... SEGMENTED contraction
Coulomb Range Separation                    ... NOT USED
Exchange Range Separation                   ... NOT USED
Finite Nucleus Model                        ... NOT USED
Auxiliary Coulomb fitting basis             ... AVAILABLE
   # of basis functions in Aux-J            ...    872
   # of shells in Aux-J                     ...    272
   Maximum angular momentum in Aux-J        ...      4
Auxiliary J/K fitting basis                 ... NOT available
Auxiliary Correlation fitting basis         ... AVAILABLE
   # of basis functions in Aux-C            ...    872
   # of shells in Aux-C                     ...    272
   Maximum angular momentum in Aux-C        ...      4
Auxiliary 'external' fitting basis          ... NOT available
Integral threshold                          ...     1.000000e-10
Primitive cut-off                           ...     1.000000e-11
[...]
  81   0.0000       2.904160        79.0262 
  82   0.0000       2.937487        79.9331 
  83   0.0000       2.994706        81.4901 
  84   0.0000       3.089899        84.0804 
  85   0.0000       3.110281        84.6350 
  86   0.0000       3.182646        86.6042 
  87   0.0000       3.203623        87.1750 
  88   0.0000       3.240686        88.1835 
  89   0.0000       3.253361        88.5285 
  90   0.0000       3.253622        88.5355 
  91   0.0000       3.305229        89.9399 
  92   0.0000       3.318725        90.3071 
  93   0.0000       3.334715        90.7422 
  94   0.0000       3.365882        91.5903 
  95   0.0000       3.370651        91.7201 
  96   0.0000       3.411171        92.8227 
  97   0.0000       3.417000        92.9813 
  98   0.0000       3.445712        93.7626 
  99   0.0000       3.461447        94.1908 
 100   0.0000       3.504040        95.3498 
 101   0.0000       3.558653        96.8359 
 102   0.0000       3.627404        98.7067 
 103   0.0000       3.686771       100.3221 
 104   0.0000       3.701171       100.7140 
 105   0.0000       3.718635       101.1892 
 106   0.0000       3.741856       101.8211 
 107   0.0000       3.757441       102.2452 
 108   0.0000       3.803865       103.5084 
 109   0.0000       3.841705       104.5381 
 110   0.0000       3.869261       105.2879 
 111   0.0000       3.922790       106.7445 
 112   0.0000       3.933874       107.0462 
 113   0.0000       4.003439       108.9391 
 114   0.0000       4.010882       109.1417 
 115   0.0000       4.064634       110.6043 
 116   0.0000       4.103341       111.6576 
 117   0.0000       4.134040       112.4929 
 118   0.0000       4.146023       112.8190 
 119   0.0000       4.149549       112.9150 
 120   0.0000       4.193947       114.1231 
 121   0.0000       4.208774       114.5266 
 122   0.0000       4.228306       115.0581 
 123   0.0000       4.334133       117.9378 
 124   0.0000       4.342941       118.1774 
 125   0.0000       4.351862       118.4202 
 126   0.0000       4.369632       118.9037 
 127   0.0000       4.404241       119.8455 
 128   0.0000       4.427774       120.4859 
 129   0.0000       4.432288       120.6087 
 130   0.0000       4.525675       123.1499 
 131   0.0000       4.554204       123.9262 
 132   0.0000       4.616476       125.6207 
 133   0.0000       4.658152       126.7548 
 134   0.0000       4.679189       127.3272 
 135   0.0000       4.722058       128.4937 
 136   0.0000       4.740810       129.0040 
 137   0.0000       4.947508       134.6285 
 138   0.0000       4.994663       135.9117 
 139   0.0000       5.020029       136.6019 
 140   0.0000       5.045598       137.2977 
 141   0.0000       5.088091       138.4540 
 142   0.0000       5.127707       139.5320 
 143   0.0000       5.179427       140.9394 
 144   0.0000       5.226299       142.2148 
 145   0.0000       5.292595       144.0188 
 146   0.0000       5.297190       144.1439 
 147   0.0000       5.519139       150.1834 
 148   0.0000       5.543106       150.8356 
 149   0.0000       5.591163       152.1433 
 150   0.0000       5.599229       152.3628 
 151   0.0000       5.642469       153.5394 
 152   0.0000       5.685150       154.7008 
 153   0.0000       5.692023       154.8878 
 154   0.0000       5.753510       156.5610 
 155   0.0000       5.802988       157.9073 
 156   0.0000       5.833949       158.7498 
 157   0.0000       5.959533       162.1671 
 158   0.0000       6.030519       164.0988 
 159   0.0000       6.170612       167.9109 
 160   0.0000       6.219381       169.2380 
 161   0.0000       6.257073       170.2636 
 162   0.0000       6.284069       170.9982 
 163   0.0000       6.331569       172.2907 
 164   0.0000       6.422089       174.7539 
 165   0.0000       6.926777       188.4872 
 166   0.0000       6.998383       190.4357 
 167   0.0000       7.128788       193.9842 
 168   0.0000       7.216230       196.3636 
 169   0.0000       7.239916       197.0081 
 170   0.0000       7.390552       201.1072 
 171   0.0000       7.547744       205.3846 
 172   0.0000       7.843582       213.4347 
 173   0.0000       8.354249       227.3307 
 174   0.0000      11.267246       306.5973 
 175   0.0000      11.413089       310.5659 
 176   0.0000      11.515858       313.3624 
 177   0.0000      11.540455       314.0318 
 178   0.0000      11.610776       315.9453 
 179   0.0000      11.613669       316.0240 
 180   0.0000      13.310687       362.2022 
 181   0.0000      13.490071       367.0835 
 182   0.0000      15.000957       408.1968 
 183   0.0000      15.016184       408.6111 
 184   0.0000      15.094186       410.7337 
 185   0.0000      15.124631       411.5621 
 186   0.0000      15.135001       411.8443 
 187   0.0000      15.587823       424.1662 
 188   0.0000      15.651348       425.8948 
 189   0.0000      15.734941       428.1695 
 190   0.0000      15.740746       428.3275 
 191   0.0000      16.092269       437.8929 
 192   0.0000      19.125034       520.4186 
 193   0.0000      19.550993       532.0096 
 194   0.0000      20.194073       549.5087 
 195   0.0000      22.784835       620.0069 
 196   0.0000      30.117201       819.5307 
 197   0.0000      30.204506       821.9064 
 198   0.0000      30.217320       822.2551 
 199   0.0000      30.316415       824.9516 
 200   0.0000      30.568446       831.8097 
 201   0.0000      50.784629      1381.9200 
 202   0.0000      50.894928      1384.9214 
 203   0.0000      51.005534      1387.9311 
 204   0.0000      51.047173      1389.0642 
 205   0.0000      51.078175      1389.9078 
 206   0.0000      51.080350      1389.9670 
 207   0.0000      62.476957      1700.0844 
 208   0.0000      62.791984      1708.6568 
 209   0.0000      90.011506      2449.3376 
 210   0.0000      90.340028      2458.2771 
 211   0.0000      90.769555      2469.9652 
 212   0.0000     106.441393      2896.4176 
Total SCF time: 0 days 0 hours 0 min 10 sec 

Maximum memory used throughout the entire SCF-calculation: 69.7 MB


           ************************************************************
           *        Program running with 5 parallel MPI-processes     *
           *              working on a common directory               *
           ************************************************************

------------------------------------------------------------------------------
                                ORCA  MP2 
------------------------------------------------------------------------------

Freezing NCore=0 chemical core electrons
Initializing SHARK ... done


------------------------------------------------------------------------------
                           ORCA ORBITAL LOCALIZATION
------------------------------------------------------------------------------

Input orbitals are from                  ... c2h5oh_lw1x_Compound_4.gbw
Output orbitals are to                   ... c2h5oh_lw1x_Compound_4.loc
Max. number of iterations                ... 128
Localizations seeded randomly            ... off
Convergence tolerance                    ... 1.000e-06
Treshold for strong local MOs            ... 9.500e-01
Treshold for bond MOs                    ... 8.500e-01
Operator                                 ... 0
Orbital range for localization           ... 0 to 12
Localization criterion                   ... FOSTER-BOYS (AUGMENTED HESSIAN)
Doing the dipole integrals     ... o.k.
Initial value of the localization sum :    53.681994
ITERATION   0 : L=   73.1569428021 DL=  1.95e+01 (AVERGE_DL)=    0.4996787327 
ITERATION   1 : L=   74.8062122115 DL=  1.65e+00 (AVERGE_DL)=    0.1454114150 
ITERATION   2 : L=   74.8309172774 DL=  2.47e-02 (AVERGE_DL)=    0.0177969552 
ITERATION   3 : L=   74.8324696326 DL=  1.55e-03 (AVERGE_DL)=    0.0044611645 
ITERATION   4 : L=   74.8326242268 DL=  1.55e-04 (AVERGE_DL)=    0.0014078273 
ITERATION   5 : L=   74.8326406414 DL=  1.64e-05 (AVERGE_DL)=    0.0004587411 
ITERATION   6 : L=   74.8326422041 DL=  1.56e-06 (AVERGE_DL)=    0.0001415412 
ITERATION   7 : L=   74.8326423478 DL=  1.44e-07 (AVERGE_DL)=    0.0000429317 
LOCALIZATION SUM CONVERGED

------------------------------------------------------
AUGMENTED HESSIAN OPTIMIZATION OF FOSTER-BOYS ORBITALS
------------------------------------------------------

Spin operator:           0
Orbital window:          0 to 12
Number of iterations:    128
Gradient tolerance:      1.000e-06
Number of pairs:         78
Davidson threshold:      2000
Diagonalization method:  LAPACK
Iter:    0   L: 74.8326423478   Grad. norm: 4.661551e-04
   *** Likely close to a maximum now. ***
       Augmented Hessian eigenvalues:  3.02e-08 -9.38e-01 -1.37e+00 -1.41e+00 ... 
Iter:    1   L: 74.8326423629   Grad. norm: 1.549486e-08
LOCALIZATION HAS CONVERGED.

Eigenvalues of the Hessian:
  0 -9.377e-01
  1 -1.372e+00
  2 -1.414e+00
  3 -3.488e+00
  4 -3.509e+00
  5 -4.863e+00
  6 -5.128e+00
  7 -5.547e+00
  8 -7.088e+00
  9 -7.132e+00
    ...


------------------------------------------------------------------------------- 
                    LOCALIZED MOLECULAR ORBITAL COMPOSITIONS                   
------------------------------------------------------------------------------- 

The Mulliken populations for each LMO on each atom are computed
The LMO`s will be ordered according to atom index and type
  (A) Strongly localized MO`s have populations of >=0.950 on one atom
  (B) Two center bond orbitals have populations of >=0.850 on two atoms
  (C) Other MO`s are considered to be `delocalized`

FOUND  -   5 strongly local MO`s
       -   8 two center bond MO`s
       -   0 significantly delocalized MO`s

Rather strongly localized orbitals:
MO   4:   2O  -   0.982942
MO   3:   2O  -   0.982942
MO   2:   2O  -   1.000313
MO   1:   1C  -   1.002215
MO   0:   0C  -   1.002489
Bond-like localized orbitals:
MO  12:   8H  -   0.484067  and   0C  -   0.533990
MO  11:   7H  -   0.484068  and   0C  -   0.533989
MO  10:   6H  -   0.498541  and   0C  -   0.518542
MO   9:   5H  -   0.517803  and   1C  -   0.517871
MO   8:   4H  -   0.517802  and   1C  -   0.517871
MO   7:   3H  -   0.399060  and   2O  -   0.607769
MO   6:   2O  -   0.667869  and   1C  -   0.344570
MO   5:   1C  -   0.523217  and   0C  -   0.511056
Localized MO's were stored in: c2h5oh_lw1x_Compound_4.loc



Calculating differential overlap integrals ... ok
Threshold for domain construction in prescreening: TCutDOPre = 3.0e-02

--------------------------
ELECTRON PAIR PRESCREENING
--------------------------

Dipole-based pair screening          .... used

   TCutDOij = 1.000000e-05
   TCutPre  = 1.000000e-06
   .... Finished loop over pairs
Total time spent in the prescreening                  ...     0.004 sec
sum of pair energies estimated for screened out pairs ...       0.000000000000 Eh

---------------------------
MAP CONSTRUCTION THRESHOLDS
---------------------------
    TCutMKN     ...     1.0e-03
    TCutDO      ...     5.0e-03
    TCutC(MO)   ...     1.0e-03
    TCutC(PAO)  ...     1.0e-03

--------------------------------
LOCAL RI TRANSFORMATION (IAVPAO)
--------------------------------

Orbital window:       0 to 12
Number of PAOs:     213
Basis functions:    213 (81 shells)
Aux. functions:     987 (285 shells)
Use SHARK:           on

Processing maps (0.0 sec)
Average map sizes:
   Aux shells -> MOs              13.0
   Aux shells -> PAOs            213.0
   MOs        -> AO shells        73.8
   PAOs       -> AO shells        81.0

Calculating integrals (0.3 sec, 20.862 MB)
Sorting integrals (0.1 sec, 20.851 MB)
Total time for the integral transformation: 0.4 sec

----------------------------
Local MP2 Energy Calculation
----------------------------
Number of orbital pairs included:     91
Truncation parameters:
    PAOOverlapThresh    =        1.000e-08
    TCutPNO             =        1.000e-09

Spin component scaling                      .... not used
MP2 energy scaling factor                   .... 1.000

Formation of semicanonical amplitudes.
 10% done.
 20% done.
 30% done.
 40% done.
 50% done.
 60% done.
 70% done.
 80% done.
 90% done.
100% done.

Finished the LMP2 guess in 1.4 sec.

Average number of PAOs per pair        213.0
Average number of nrPAOs per pair      200.0
Average number of PNOs per pair         82.7
Average number of AUX  per pair        840.2

Semicanonical MP2 energy:                   -0.731773260768 Eh
Semicanonical MP2 energy in PNO basis:      -0.731754926311 Eh

Initial amplitudes guess done. Entering DLPNO-MP2 iteration loop:
   Max. no of iterations          ...  100
   Energy convergence tolerance   ...    1.0e-06 Eh
   Residual convergence tolerance ...    5.0e-06
   Fock matrix cutoff             ...    1.0e-05 Eh
   Max # vectors in DIIS          ...  7
   Start iteration of DIIS        ...  0
   Levelshift                     ...  2.000e-01 Eh
   Damping before turning on DIIS ...  5.000e-01
   Damping after turning on DIIS  ...  0.000e+00

                           *** Turning on DIIS ***
Iter=   0:  ECORR= -0.743917008317  DE=   1.2e-02 RMAX=   2.8e-02
Iter=   1:  ECORR= -0.752561687904  DE=   8.6e-03 RMAX=   1.1e-02
Iter=   2:  ECORR= -0.753942538813  DE=   1.4e-03 RMAX=   3.0e-03
Iter=   3:  ECORR= -0.754250400704  DE=   3.1e-04 RMAX=   6.4e-04
Iter=   4:  ECORR= -0.754275392378  DE=   2.5e-05 RMAX=   7.3e-05
Iter=   5:  ECORR= -0.754275024748  DE=   3.7e-07 RMAX=   1.8e-05
Iter=   6:  ECORR= -0.754274603078  DE=   4.2e-07 RMAX=   2.7e-06 => CONVERGED

Finished the DLPNO-MP2 iterations in 8.1 sec.

LMP2 correlation energy (all non-screened pairs)      ...     -0.754274603078 Eh
Semicanonical PNO correction to energy                ...     -0.000018334457 Eh
Sum of pair energies estimated for screened out pairs ...      0.000000000000 Eh
                                                         -----------------------
Total:                                                ...     -0.754292937535 Eh

------------------------------------------------------
 DLPNO-MP2 CORRELATION ENERGY:      -0.754292937535 Eh
------------------------------------------------------

TIMINGS FOR DLPNO-MP2:
Localization                             ...        0.201 sec
Differential overlap integrals           ...        1.144 sec
Prescreening                             ...        0.153 sec
Map setup                                ...        0.002 sec
(ia|v) trafo                             ...        0.375 sec
Semicanonical amplitudes                 ...        1.150 sec
PNO construction                         ...        0.146 sec
DLPNO-MP2 iterations                     ...        8.100 sec
                                             ----------------
Total time                                         11.844 sec


---------------------------------------
MP2 TOTAL ENERGY:     -154.974313129 Eh
---------------------------------------

Maximum memory used throughout the entire MP2-calculation: 115.4 MB

-------------------------   --------------------
FINAL SINGLE POINT ENERGY      -154.974313128599
-------------------------   --------------------


                            ***************************************
                            *     ORCA property calculations      *
                            ***************************************


  WARNING: The energy has been calculated at the MP2 level but the densities
           used in the property calculations are still SCF densities
           MP2 response densities have not been calculated 
           use %mp2 Density relaxed end
           or  %mp2 Density unrelaxed end

                                    ---------------------
                                    Active property flags
                                    ---------------------
   (+) Dipole Moment


------------------------------------------------------------------------------
                       ORCA ELECTRIC PROPERTIES CALCULATION
------------------------------------------------------------------------------

Dipole Moment Calculation                       ... on
Quadrupole Moment Calculation                   ... off
Polarizability Calculation                      ... off
GBWName                                         ... c2h5oh_lw1x_Compound_4.gbw
Electron density                                ... c2h5oh_lw1x_Compound_4.scfp
The origin for moment calculation is the CENTER OF MASS  = (-0.102910, -0.034330  0.000000)

-------------
DIPOLE MOMENT
-------------
                                X             Y             Z
Electronic contribution:     -2.63278      -0.23250      -0.00000
Nuclear contribution   :      2.67566       0.89256       0.00000
                        -----------------------------------------
Total Dipole Moment    :      0.04288       0.66007      -0.00000
                        -----------------------------------------
Magnitude (a.u.)       :      0.66146
Magnitude (Debye)      :      1.68129



--------------------
Rotational spectrum 
--------------------
 
Rotational constants in cm-1:     1.176223     0.312024     0.271644 
Rotational constants in MHz : 35262.282415  9354.254825  8143.687185 

 Dipole components along the rotational axes: 
x,y,z [a.u.] :     0.028341     0.660851    -0.000000 
x,y,z [Debye]:     0.072037     1.679750    -0.000000 

 

Timings for individual modules:

Sum of individual times         ...       24.461 sec (=   0.408 min)
GTO integral calculation        ...        0.752 sec (=   0.013 min)   3.1 %
Relativistic integrals          ...        0.826 sec (=   0.014 min)   3.4 %
SCF iterations                  ...       10.504 sec (=   0.175 min)  42.9 %
MP2 module                      ...       12.378 sec (=   0.206 min)  50.6 %
================================================================================

----- Orbital basis set information -----
Your calculation utilizes the basis: def2-SVP
   F. Weigend and R. Ahlrichs, Phys. Chem. Chem. Phys. 7, 3297 (2005).



----------------------------------------------------------------------------------------------
                                        COMPOUND BLOCK                                        
                                     SUMMARY OF VARIABLES                                     
----------------------------------------------------------------------------------------------

Variable Name                                           Value             Evaluation String
-------------                                           -----             -----------------
HF_DZ                                    |            -154.14917145    |  
EC_DZ                                    |              -0.66588739    |  
CC_DZ                                    |              -0.65257666    |  EC_DZ-T_DZ
T_DZ                                     |              -0.01331073    |  
HF_TZ                                    |            -154.15475118    |  
EC_TZ                                    |              -0.69742905    |  
CC_TZ                                    |              -0.67497001    |  EC_TZ-T_TZ
T_TZ                                     |              -0.02245903    |  
HF_CBS                                   |            -154.15559739    |  HF_TZ-(HF_TZ-HF_DZ)*3^-5/(3^-5-2^-5)
CC_CBS                                   |              -0.67880755    |  CC_TZ-(CC_TZ-CC_DZ)*3^-4.7405/(3^-4.7405-2^-4.7405)
T_CBS                                    |              -0.02932901    |  T_TZ-(T_TZ-T_DZ)*3^-2.0879/(3^-2.0879-2^-2.0879)
MP_FC                                    |            -154.75397654    |  
MP_FU                                    |            -154.97431313    |  
MP_CV                                    |              -0.22033659    |  MP_FU-MP_FC
LW1X                                     |            -155.08407054    |  HF_CBS+CC_CBS+T_CBS+MP_CV
                             ****ORCA TERMINATED NORMALLY****
TOTAL RUN TIME: 0 days 0 hours 10 minutes 18 seconds 471 msec
