
                                 *****************
                                 * O   R   C   A *
                                 *****************

                                            #,                                       
                                            ###                                      
                                            ####                                     
                                            #####                                    
                                            ######                                   
                                           ########,                                 
                                     ,,################,,,,,                         
                               ,,#################################,,                 
                          ,,##########################################,,             
                       ,#########################################, ''#####,          
                    ,#############################################,,   '####,        
                  ,##################################################,,,,####,       
                ,###########''''           ''''###############################       
              ,#####''   ,,,,##########,,,,          '''####'''          '####       
            ,##' ,,,,###########################,,,                        '##       
           ' ,,###''''                  '''############,,,                           
         ,,##''                                '''############,,,,        ,,,,,,###''
      ,#''                                            '''#######################'''  
     '                                                          ''''####''''         
             ,#######,   #######,   ,#######,      ##                                
            ,#'     '#,  ##    ##  ,#'     '#,    #''#        ######   ,####,        
            ##       ##  ##   ,#'  ##            #'  '#       #        #'  '#        
            ##       ##  #######   ##           ,######,      #####,   #    #        
            '#,     ,#'  ##    ##  '#,     ,#' ,#      #,         ##   #,  ,#        
             '#######'   ##     ##  '#######'  #'      '#     #####' # '####'        



                  #######################################################
                  #                        -***-                        #
                  #          Department of theory and spectroscopy      #
                  #    Directorship and core code : Frank Neese         #
                  #        Max Planck Institute fuer Kohlenforschung    #
                  #                Kaiser Wilhelm Platz 1               #
                  #                 D-45470 Muelheim/Ruhr               #
                  #                      Germany                        #
                  #                                                     #
                  #                  All rights reserved                #
                  #                        -***-                        #
                  #######################################################


                         Program Version 5.0.1 -  RELEASE  -


 With contributions from (in alphabetic order):
   Daniel Aravena         : Magnetic Suceptibility
   Michael Atanasov       : Ab Initio Ligand Field Theory (pilot matlab implementation)
   Alexander A. Auer      : GIAO ZORA, VPT2 properties, NMR spectrum
   Ute Becker             : Parallelization
   Giovanni Bistoni       : ED, misc. LED, open-shell LED, HFLD
   Martin Brehm           : Molecular dynamics
   Dmytro Bykov           : SCF Hessian
   Vijay G. Chilkuri      : MRCI spin determinant printing, contributions to CSF-ICE
   Dipayan Datta          : RHF DLPNO-CCSD density
   Achintya Kumar Dutta   : EOM-CC, STEOM-CC
   Dmitry Ganyushin       : Spin-Orbit,Spin-Spin,Magnetic field MRCI
   Miquel Garcia          : C-PCM and meta-GGA Hessian, CC/C-PCM, Gaussian charge scheme
   Yang Guo               : DLPNO-NEVPT2, F12-NEVPT2, CIM, IAO-localization
   Andreas Hansen         : Spin unrestricted coupled pair/coupled cluster methods
   Benjamin Helmich-Paris : MC-RPA, TRAH-SCF, COSX integrals
   Lee Huntington         : MR-EOM, pCC
   Robert Izsak           : Overlap fitted RIJCOSX, COSX-SCS-MP3, EOM
   Marcus Kettner         : VPT2
   Christian Kollmar      : KDIIS, OOCD, Brueckner-CCSD(T), CCSD density, CASPT2, CASPT2-K
   Simone Kossmann        : Meta GGA functionals, TD-DFT gradient, OOMP2, MP2 Hessian
   Martin Krupicka        : Initial AUTO-CI
   Lucas Lang             : DCDCAS
   Marvin Lechner         : AUTO-CI (C++ implementation), FIC-MRCC
   Dagmar Lenk            : GEPOL surface, SMD
   Dimitrios Liakos       : Extrapolation schemes; Compound Job, initial MDCI parallelization
   Dimitrios Manganas     : Further ROCIS development; embedding schemes
   Dimitrios Pantazis     : SARC Basis sets
   Anastasios Papadopoulos: AUTO-CI, single reference methods and gradients
   Taras Petrenko         : DFT Hessian,TD-DFT gradient, ASA, ECA, R-Raman, ABS, FL, XAS/XES, NRVS
   Peter Pinski           : DLPNO-MP2, DLPNO-MP2 Gradient
   Christoph Reimann      : Effective Core Potentials
   Marius Retegan         : Local ZFS, SOC
   Christoph Riplinger    : Optimizer, TS searches, QM/MM, DLPNO-CCSD(T), (RO)-DLPNO pert. Triples
   Tobias Risthaus        : Range-separated hybrids, TD-DFT gradient, RPA, STAB
   Michael Roemelt        : Original ROCIS implementation
   Masaaki Saitow         : Open-shell DLPNO-CCSD energy and density
   Barbara Sandhoefer     : DKH picture change effects
   Avijit Sen             : IP-ROCIS
   Kantharuban Sivalingam : CASSCF convergence, NEVPT2, FIC-MRCI
   Bernardo de Souza      : ESD, SOC TD-DFT
   Georgi Stoychev        : AutoAux, RI-MP2 NMR, DLPNO-MP2 response
   Willem Van den Heuvel  : Paramagnetic NMR
   Boris Wezisla          : Elementary symmetry handling
   Frank Wennmohs         : Technical directorship


 We gratefully acknowledge several colleagues who have allowed us to
 interface, adapt or use parts of their codes:
   Stefan Grimme, W. Hujo, H. Kruse, P. Pracht,  : VdW corrections, initial TS optimization,
                  C. Bannwarth, S. Ehlert          DFT functionals, gCP, sTDA/sTD-DF
   Ed Valeev, F. Pavosevic, A. Kumar             : LibInt (2-el integral package), F12 methods
   Garnet Chan, S. Sharma, J. Yang, R. Olivares  : DMRG
   Ulf Ekstrom                                   : XCFun DFT Library
   Mihaly Kallay                                 : mrcc  (arbitrary order and MRCC methods)
   Jiri Pittner, Ondrej Demel                    : Mk-CCSD
   Frank Weinhold                                : gennbo (NPA and NBO analysis)
   Christopher J. Cramer and Donald G. Truhlar   : smd solvation model
   Lars Goerigk                                  : TD-DFT with DH, B97 family of functionals
   V. Asgeirsson, H. Jonsson                     : NEB implementation
   FAccTs GmbH                                   : IRC, NEB, NEB-TS, DLPNO-Multilevel, CI-OPT
                                                   MM, QMMM, 2- and 3-layer-ONIOM, Crystal-QMMM,
                                                   LR-CPCM, SF, NACMEs, symmetry and pop. for TD-DFT,
                                                   nearIR, NL-DFT gradient (VV10), updates on ESD,
                                                   ML-optimized integration grids
   S Lehtola, MJT Oliveira, MAL Marques          : LibXC Library
   Liviu Ungur et al                             : ANISO software


 Your calculation uses the libint2 library for the computation of 2-el integrals
 For citations please refer to: http://libint.valeyev.net

 Your ORCA version has been built with support for libXC version: 5.1.0
 For citations please refer to: https://tddft.org/programs/libxc/

 This ORCA versions uses:
   CBLAS   interface :  Fast vector & matrix operations
   LAPACKE interface :  Fast linear algebra routines
   SCALAPACK package :  Parallel linear algebra routines
   Shared memory     :  Shared parallel matrices
   BLAS/LAPACK       :  OpenBLAS 0.3.15  USE64BITINT DYNAMIC_ARCH NO_AFFINITY SkylakeX SINGLE_THREADED
        Core in use  :  SkylakeX
   Copyright (c) 2011-2014, The OpenBLAS Project




################################################################################


                                COMPOUND JOB MainJOB 
Basename: c2h5oh_lw1x-p34_Compound_0

################################################################################

================================================================================
                                       INPUT FILE
================================================================================
NAME = c2h5oh_lw1x-p34_Compound_0.inp
|  1> %Maxcore 1000
|  2>  %Pal nprocs 5 End
|  3>  
|  4>  * xyz 0 1
|  5>  C        1.174266   -0.402393    0.000000 
|  6>  C        0.000000    0.553968    0.000000 
|  7>  O       -1.198609   -0.219376    0.000000 
|  8>  H       -1.951507    0.377618    0.000000 
|  9>  H        0.042676    1.200562    0.884607 
| 10>  H        0.042676    1.200562   -0.884607 
| 11>  H        2.116030    0.148166    0.000000 
| 12>  H        1.146699   -1.040676    0.883284 
| 13>  H        1.146699   -1.040676   -0.883284 
| 14>  *
| 15>  
| 16> 
| 17>                          ****END OF INPUT****
================================================================================
================================================================================

----- Orbital basis set information -----
Your calculation utilizes the basis: def2-SVP
   F. Weigend and R. Ahlrichs, Phys. Chem. Chem. Phys. 7, 3297 (2005).



################################################################################


                                COMPOUND JOB  1 
Basename: c2h5oh_lw1x-p34_Compound_1
NOTE: please remember that MaxCore and PAL settings will be ignored.

################################################################################

================================================================================
                                       INPUT FILE
================================================================================
NAME = c2h5oh_lw1x-p34_Compound_1.inp
|  1>     ! DKH DefGrid3 RIJCOSX TightPNO DLPNO-MP2 MiniPrint NoPop
|  2>     %Basis
|  3>       Basis         "cc-pVTZ-DK"
|  4>       AuxJ          "AutoAux"
|  5>       AuxC          "AutoAux"
|  6>       CABS          "AutoAux"
|  7>       NewGTO     Ga "cc-pVTZ-DK" End
|  8>       NewAuxjGTO Ga "AutoAux" End
|  9>       NewAuxcGTO Ga "AutoAux" End
| 10>       NewCabsGTO Ga "AutoAux" End
| 11>       NewGTO     Ge "cc-pVTZ-DK" End
| 12>       NewAuxjGTO Ge "AutoAux" End
| 13>       NewAuxcGTO Ge "AutoAux" End
| 14>       NewCabsGTO Ge "AutoAux" End
| 15>       NewGTO     As "cc-pVTZ-DK" End
| 16>       NewAuxjGTO As "AutoAux" End
| 17>       NewAuxcGTO As "AutoAux" End
| 18>       NewCabsGTO As "AutoAux" End
| 19>       NewGTO     Se "cc-pVTZ-DK" End
| 20>       NewAuxjGTO Se "AutoAux" End
| 21>       NewAuxcGTO Se "AutoAux" End
| 22>       NewCabsGTO Se "AutoAux" End
| 23>       NewGTO     Br "cc-pVTZ-DK" End
| 24>       NewAuxjGTO Br "AutoAux" End
| 25>       NewAuxcGTO Br "AutoAux" End
| 26>       NewCabsGTO Br "AutoAux" End
| 27>       NewGTO     Kr "cc-pVTZ-DK" End
| 28>       NewAuxjGTO Kr "AutoAux" End
| 29>       NewAuxcGTO Kr "AutoAux" End
| 30>       NewCabsGTO Kr "AutoAux" End
| 31>       NewGTO     In "cc-pVTZ-DK" End
| 32>       NewAuxjGTO In "AutoAux" End
| 33>       NewAuxcGTO In "AutoAux" End
| 34>       NewCabsGTO In "AutoAux" End
| 35>       NewGTO     Sn "cc-pVTZ-DK" End
| 36>       NewAuxjGTO Sn "AutoAux" End
| 37>       NewAuxcGTO Sn "AutoAux" End
| 38>       NewCabsGTO Sn "AutoAux" End
| 39>       NewGTO     Sb "cc-pVTZ-DK" End
| 40>       NewAuxjGTO Sb "AutoAux" End
| 41>       NewAuxcGTO Sb "AutoAux" End
| 42>       NewCabsGTO Sb "AutoAux" End
| 43>       NewGTO     Te "cc-pVTZ-DK" End
| 44>       NewAuxjGTO Te "AutoAux" End
| 45>       NewAuxcGTO Te "AutoAux" End
| 46>       NewCabsGTO Te "AutoAux" End
| 47>       NewGTO     I  "cc-pVTZ-DK" End
| 48>       NewAuxjGTO I  "AutoAux" End
| 49>       NewAuxcGTO I  "AutoAux" End
| 50>       NewCabsGTO I  "AutoAux" End
| 51>       NewGTO     Xe "cc-pVTZ-DK" End
| 52>       NewAuxjGTO Xe "AutoAux" End
| 53>       NewAuxcGTO Xe "AutoAux" End
| 54>       NewCabsGTO Xe "AutoAux" End
| 55>     End
| 56> 
| 57>                          ****END OF INPUT****
================================================================================
Warning! AutoAux has not been tested for CABS - use at your own risk!
================================================================================

----- Orbital basis set information -----
Your calculation utilizes the basis: cc-pVTZ-DK 
    H-He, B-Ne : Obtained from the ccRepo (grant-hill.group.shef.ac.uk/ccrepo) Feb. 2017
                 W. A. de Jong, R. J. Harrison, D. A. Dixon, J. Chem. Phys. 114, 48 (2001)
  Li-Be, Na-Mg : Obtained from the Peterson Research Group Website (tyr0.chem.wsu.edu/~kipeters) Feb. 2017
                 B. P. Prascher, D. E. Woon, K. A. Peterson, T. H. Dunning, Jr., A. K. Wilson, Theor. Chem. Acc. 128, 69 (2011)
  Al-Ar, Ga-Kr : Obtained from the EMSL Basis Set Exchange (bse.pnl.gov) Feb. 2017
                 W. A. de Jong, R. J. Harrison, D. A. Dixon, J. Chem. Phys. 114, 48 (2001)
         Sc-Zn : Obtained from the ccRepo (grant-hill.group.shef.ac.uk/ccrepo) Feb. 2017
                 N. B. Balabanov, K. A. Peterson, J. Chem. Phys. 123, 064107 (2005)
                 N. B. Balabanov, K. A. Peterson, J. Chem. Phys. 125, 074110 (2006)
          Y-Pd : Obtained from the ccRepo (grant-hill.group.shef.ac.uk/ccrepo) Feb. 2017
                 K. A. Peterson, D. Figgen, M. Dolg, H. Stoll, J. Chem. Phys. 126, 124101 (2007)
  Ag-Cd, Au-Hg : Obtained from the ccRepo (grant-hill.group.shef.ac.uk/ccrepo) Feb. 2017
                 K. A. Peterson, C. Puzzarini, Theor. Chem. Acc. 114, 283 (2005)
  In-Xe, Tl-Rn : Obtained from the ccRepo (grant-hill.group.shef.ac.uk/ccrepo) Feb. 2017
                 D. H. Bross, K. A. Peterson, Theor. Chem. Acc. 133, 1434 (2014)
         Hf-Pt : Obtained from the ccRepo (grant-hill.group.shef.ac.uk/ccrepo) Feb. 2017
                 D. Figgen, K. A. Peterson, M. Dolg, H. Stoll, J. Chem. Phys. 130, 164108 (2009)

The basis set includes element-specific modifications.

----- AuxJ basis set information -----
Your calculation utilizes the AutoAux generation procedure.
  G. L. Stoychev, A. A. Auer, F. Neese, J. Chem. Theory Comput. 13, 554 (2017)

The basis set includes element-specific modifications.

----- AuxC basis set information -----
Your calculation utilizes the AutoAux generation procedure.
  G. L. Stoychev, A. A. Auer, F. Neese, J. Chem. Theory Comput. 13, 554 (2017)

The basis set includes element-specific modifications.

----- CABS information -----
Your calculation utilizes the AutoAux generation procedure.
  G. L. Stoychev, A. A. Auer, F. Neese, J. Chem. Theory Comput. 13, 554 (2017)

The basis set includes element-specific modifications.


                    <<< The CABS basis set will be decontracted >>>

================================================================================
                                        WARNINGS
                       Please study these warnings very carefully!
================================================================================


WARNING: No MP2 level density has been requested!
         To caclulate MP2 level properties use
         %mp2 Density relaxed end
         or
         %mp2 Density unrelaxed end

WARNING: Post HF methods need fully converged wavefunctions
  ===> : Setting SCFConvForced true
         You can overwrite this default with %scf ConvForced false 


INFO   : the flag for use of the SHARK integral package has been found!


                       ****************************
                       * Single Point Calculation *
                       ****************************

---------------------------------
CARTESIAN COORDINATES (ANGSTROEM)
---------------------------------
  C      1.174266   -0.402393    0.000000
  C      0.000000    0.553968    0.000000
  O     -1.198609   -0.219376    0.000000
  H     -1.951507    0.377618    0.000000
  H      0.042676    1.200562    0.884607
  H      0.042676    1.200562   -0.884607
  H      2.116030    0.148166    0.000000
  H      1.146699   -1.040676    0.883284
  H      1.146699   -1.040676   -0.883284

----------------------------
CARTESIAN COORDINATES (A.U.)
----------------------------
  NO LB      ZA    FRAG     MASS         X           Y           Z
   0 C     6.0000    0    12.011    2.219041   -0.760413    0.000000
   1 C     6.0000    0    12.011    0.000000    1.046848    0.000000
   2 O     8.0000    0    15.999   -2.265043   -0.414561    0.000000
   3 H     1.0000    0     1.008   -3.687814    0.713595    0.000000
   4 H     1.0000    0     1.008    0.080646    2.268733    1.671665
   5 H     1.0000    0     1.008    0.080646    2.268733   -1.671665
   6 H     1.0000    0     1.008    3.998717    0.279993    0.000000
   7 H     1.0000    0     1.008    2.166947   -1.966593    1.669165
   8 H     1.0000    0     1.008    2.166947   -1.966593   -1.669165



           ************************************************************
           *        Program running with 5 parallel MPI-processes     *
           *              working on a common directory               *
           ************************************************************
------------------------------------------------------------------------------
                   ___                                                        
                  /   \      - P O W E R E D   B Y -                         
                 /     \                                                     
                 |  |  |   _    _      __       _____    __    __             
                 |  |  |  | |  | |    /  \     |  _  \  |  |  /  |          
                  \  \/   | |  | |   /    \    | | | |  |  | /  /          
                 / \  \   | |__| |  /  /\  \   | |_| |  |  |/  /          
                |  |  |   |  __  | /  /__\  \  |    /   |      \           
                |  |  |   | |  | | |   __   |  |    \   |  |\   \          
                \     /   | |  | | |  |  |  |  | |\  \  |  | \   \       
                 \___/    |_|  |_| |__|  |__|  |_| \__\ |__|  \__/        
                                                                              
                      - O R C A' S   B I G   F R I E N D -                    
                                      &                                       
                       - I N T E G R A L  F E E D E R -                       
                                                                              
 v1 FN, 2020, v2 2021                                                         
------------------------------------------------------------------------------


Reading SHARK input file c2h5oh_lw1x-p34_Compound_1.SHARKINP.tmp ... ok
----------------------
SHARK INTEGRAL PACKAGE
----------------------

Number of atoms                             ...      9
Number of basis functions                   ...    174
Number of shells                            ...     66
Maximum angular momentum                    ...      3
Integral batch strategy                     ... SHARK/LIBINT Hybrid
RI-J (if used) integral strategy            ... SPLIT-RIJ (Revised 2003 algorithm where possible)
Printlevel                                  ...      1
Contraction scheme used                     ... SEGMENTED contraction
Coulomb Range Separation                    ... NOT USED
Exchange Range Separation                   ... NOT USED
Finite Nucleus Model                        ... NOT USED
Auxiliary Coulomb fitting basis             ... AVAILABLE
   # of basis functions in Aux-J            ...    789
   # of shells in Aux-J                     ...    249
   Maximum angular momentum in Aux-J        ...      4
Auxiliary J/K fitting basis                 ... NOT available
Auxiliary Correlation fitting basis         ... AVAILABLE
   # of basis functions in Aux-C            ...    789
   # of shells in Aux-C                     ...    249
   Maximum angular momentum in Aux-C        ...      4
Auxiliary 'external' fitting basis          ... NOT available
Integral threshold                          ...     1.000000e-10
Primitive cut-off                           ...     1.000000e-11
Primitive pair pre-selection threshold      ...     1.000000e-11

Calculating pre-screening integrals         ... done (  0.5 sec) Dimension = 66
Organizing shell pair data                  ... done (  0.0 sec)
Shell pair information
Total number of shell pairs                 ...      2211
Shell pairs after pre-screening             ...      2189
Total number of primitive shell pairs       ...      8196
Primitive shell pairs kept                  ...      6689
          la=0 lb=0:    461 shell pairs
          la=1 lb=0:    622 shell pairs
          la=1 lb=1:    227 shell pairs
          la=2 lb=0:    357 shell pairs
          la=2 lb=1:    249 shell pairs
          la=2 lb=2:     78 shell pairs
          la=3 lb=0:     90 shell pairs
          la=3 lb=1:     63 shell pairs
          la=3 lb=2:     36 shell pairs
          la=3 lb=3:      6 shell pairs

Calculating one electron integrals          ... done (  0.1 sec)
Calculating RI/J V-Matrix + Cholesky decomp.... done (  0.1 sec)
Calculating RI/C V-Matrix + Cholesky decomp.... done (  0.0 sec)
Calculating Nuclear repulsion               ... done (  0.0 sec) ENN=     81.790161863375 Eh

SHARK setup successfully completed in   1.4 seconds

Maximum memory used throughout the entire GTOINT-calculation: 17.8 MB


           ************************************************************
           *        Program running with 5 parallel MPI-processes     *
           *              working on a common directory               *
           ************************************************************
------------------------------------------------------------------------------
                          ORCA RELATIVISTIC HAMILTONIAN
------------------------------------------------------------------------------

Relativistic Method            ... DKH
Order of DKH treatment         ...   2
Treatment of potential         ... V(e,N)
Eps parameter for DKH          ...   0.00000000010000
Nucleus model                  ... Point Nucleus
Speed of light used            ... 137.03598950000000


            ************************************************
            *        DOUGLAS-KROLL-HESS HAMILTONIAN        *
            *   Programmed by FN according to literature   *
            *        procedures. Special thanks to         *
            *       B.A. Hess, M. Reiher and A. Wolf       *
            *     University Erlangen-Nuernberg/Bonn       *
            ************************************************

Uncontracting the basis (second version)       ... done
Basis set overlap                              ... done
Number of contracted basis functions           ...  174
Number of uncontracted basis functions         ...  222
Initializing the DKH file                      ... done
Calculating the relativistic integrals         ... done
Storing DKH matrices                           ... done
Code used for DKH trafo                        ... ORCA
Computing the DKH transformation               ... done
Storing the transformation variables           ... done
Transforming V and pVp to p**2 space           ... done
First transformation of V and pVp              ... done
Second transformation of Veff                  ... done
Adding kinetic energy                          ... done
Back transformation of Veff to r-space         ... done
Recovering DKH matrices                        ... done
Recontracting the H-matrix (second version)    ... done
Computing the DKH correction to the H-matrix   ... done
Reading the original H-matrix                  ... done
Adding DKH correction to the H-matrix          ... done
Storing the new modified H-matrix              ... done

Maximum memory used throughout the entire REL-calculation: 47.0 MB


           ************************************************************
           *        Program running with 5 parallel MPI-processes     *
           *              working on a common directory               *
           ************************************************************

Diagonalization of the overlap matrix:
Smallest eigenvalue                        ... 1.033e-03
Time for diagonalization                   ...    0.276 sec
Threshold for overlap eigenvalues          ... 1.000e-08
Number of eigenvalues below threshold      ... 0
Time for construction of square roots      ...    0.044 sec
Total time needed                          ...    0.321 sec

Time for model grid setup =    0.262 sec

Loading DKH relativistic densities                 ... done
Calculating cut-offs                               ... done
Initializing the effective Hamiltonian             ... done
Setting up the integral package (SHARK)            ... done
Starting the Coulomb interaction                   ... done (   0.3 sec)
Reading the grid                                   ... done
Mapping shells                                     ... done
Starting the XC term evaluation                    ... done (   0.0 sec)
Transforming the Hamiltonian                       ... done (   0.0 sec)
Diagonalizing the Hamiltonian                      ... done (   0.0 sec)
Back transforming the eigenvectors                 ... done (   0.0 sec)
Now organizing SCF variables                       ... done
--------------------
COSX GRID GENERATION
--------------------

GRIDX 1
-------
General Integration Accuracy     IntAcc      ... 4.020
Radial Grid Type                 RadialGrid  ... OptM3 with GC (2021)
Angular Grid (max. ang.)         AngularGrid ... 2 (Lebedev-110)
Angular grid pruning method      GridPruning ... 4 (adaptive)
Weight generation scheme         WeightScheme... Becke
Basis function cutoff            BFCut       ... 1.0000e-10
Integration weight cutoff        WCut        ... 1.0000e-14
Angular grids for H and He will be reduced by one unit
Partially contracted basis set               ... on
Rotationally invariant grid construction     ... off

Total number of grid points                  ...    10214
Total number of batches                      ...      163
Average number of points per batch           ...       62
Average number of grid points per atom       ...     1135
UseSFitting                                  ... on

GRIDX 2
-------
General Integration Accuracy     IntAcc      ... 4.338
Radial Grid Type                 RadialGrid  ... OptM3 with GC (2021)
Angular Grid (max. ang.)         AngularGrid ... 3 (Lebedev-194)
Angular grid pruning method      GridPruning ... 4 (adaptive)
Weight generation scheme         WeightScheme... Becke
Basis function cutoff            BFCut       ... 1.0000e-10
Integration weight cutoff        WCut        ... 1.0000e-14
Angular grids for H and He will be reduced by one unit
Partially contracted basis set               ... on
Rotationally invariant grid construction     ... off

Total number of grid points                  ...    22494
Total number of batches                      ...      354
Average number of points per batch           ...       63
Average number of grid points per atom       ...     2499
UseSFitting                                  ... on

GRIDX 3
-------
General Integration Accuracy     IntAcc      ... 4.871
Radial Grid Type                 RadialGrid  ... OptM3 with GC (2021)
Angular Grid (max. ang.)         AngularGrid ... 4 (Lebedev-302)
Angular grid pruning method      GridPruning ... 4 (adaptive)
Weight generation scheme         WeightScheme... Becke
Basis function cutoff            BFCut       ... 1.0000e-10
Integration weight cutoff        WCut        ... 1.0000e-14
Angular grids for H and He will be reduced by one unit
Partially contracted basis set               ... on
Rotationally invariant grid construction     ... off

Total number of grid points                  ...    45100
Total number of batches                      ...      708
Average number of points per batch           ...       63
Average number of grid points per atom       ...     5011
UseSFitting                                  ... on

Time for X-Grid setup             =    0.563 sec

 re-compute Schwartz prescreening matrix in partically contracted basis (1) ...done (   0.164 sec)
--------------
SCF ITERATIONS
--------------
ITER       Energy         Delta-E        Max-DP      RMS-DP      [F,P]     Damp
               ***  Starting incremental Fock matrix formation  ***
  0   -154.0287270226   0.000000000000 0.02807237  0.00084354  0.2897353 0.7000
  1   -154.0990305166  -0.070303494015 0.02036862  0.00064557  0.1717051 0.7000
                               ***Turning on DIIS***
  2   -154.1401197730  -0.041089256376 0.01476241  0.00039943  0.1103212 0.7000
  3   -154.5613286870  -0.421208914018 0.03765233  0.00073878  0.0830615 0.0000
  4   -154.1895014741   0.371827212935 0.00639564  0.00015393  0.0082302 0.0000
                      *** Initiating the SOSCF procedure ***
                           *** Shutting down DIIS ***
                      *** Re-Reading the Fockian *** 
                      *** Removing any level shift *** 
ITER      Energy       Delta-E        Grad      Rot      Max-DP    RMS-DP
  5   -154.22683517  -0.0373337004  0.001539  0.001539  0.002315  0.000072
               *** Restarting incremental Fock matrix formation ***
  6   -154.22341412   0.0034210589  0.000691  0.000796  0.000784  0.000033
  7   -154.22342359  -0.0000094778  0.000195  0.000431  0.000602  0.000022
  8   -154.22342509  -0.0000014944  0.000076  0.000062  0.000173  0.000005
                 **** Energy Check signals convergence ****
              ***Rediagonalizing the Fockian in SOSCF/NRSCF***

               *****************************************************
               *                     SUCCESS                       *
               *           SCF CONVERGED AFTER   9 CYCLES          *
               *****************************************************

Old exchange energy                            =    -20.798124493 Eh
New exchange energy                            =    -20.798155035 Eh
Exchange energy change after final integration =     -0.000030542 Eh
Total energy after final integration           =   -154.223455811 Eh
Final COS-X integration done in                =     1.521 sec
Total Energy       :         -154.22345581 Eh           -4196.63359 eV
  Last Energy change         ...   -1.8181e-07  Tolerance :   1.0000e-06
  Last MAX-Density change    ...    1.7764e-15  Tolerance :   1.0000e-05
             **** THE GBW FILE WAS UPDATED (c2h5oh_lw1x-p34_Compound_1.gbw) ****
             **** DENSITY c2h5oh_lw1x-p34_Compound_1.scfp WAS UPDATED ****
             **** ENERGY FILE WAS UPDATED (c2h5oh_lw1x-p34_Compound_1.en.tmp) ****
             **** THE GBW FILE WAS UPDATED (c2h5oh_lw1x-p34_Compound_1.gbw) ****
             **** DENSITY c2h5oh_lw1x-p34_Compound_1.scfp WAS UPDATED ****
----------------
ORBITAL ENERGIES
----------------

  NO   OCC          E(Eh)            E(eV) 
   0   2.0000     -20.564490      -559.5882 
   1   2.0000     -11.277771      -306.8838 
   2   2.0000     -11.215411      -305.1868 
   3   2.0000      -1.353499       -36.8306 
   4   2.0000      -1.011302       -27.5189 
   5   2.0000      -0.833232       -22.6734 
   6   2.0000      -0.695282       -18.9196 
   7   2.0000      -0.642331       -17.4787 
   8   2.0000      -0.568357       -15.4658 
   9   2.0000      -0.531699       -14.4683 
  10   2.0000      -0.523732       -14.2515 
  11   2.0000      -0.486592       -13.2409 
  12   2.0000      -0.439949       -11.9716 
  13   0.0000       0.138602         3.7716 
  14   0.0000       0.168402         4.5825 
  15   0.0000       0.198318         5.3965 
  16   0.0000       0.200729         5.4621 
  17   0.0000       0.222680         6.0594 
  18   0.0000       0.246952         6.7199 
  19   0.0000       0.319684         8.6991 
  20   0.0000       0.328950         8.9512 
  21   0.0000       0.382115        10.3979 
  22   0.0000       0.402605        10.9554 
  23   0.0000       0.453320        12.3355 
  24   0.0000       0.479373        13.0444 
  25   0.0000       0.551428        15.0051 
  26   0.0000       0.561082        15.2678 
  27   0.0000       0.589988        16.0544 
  28   0.0000       0.633340        17.2341 
  29   0.0000       0.647408        17.6169 
  30   0.0000       0.664823        18.0908 
  31   0.0000       0.669791        18.2259 
  32   0.0000       0.675956        18.3937 
  33   0.0000       0.724819        19.7233 
  34   0.0000       0.742815        20.2130 
  35   0.0000       0.756566        20.5872 
  36   0.0000       0.794152        21.6100 
  37   0.0000       0.845419        23.0050 
  38   0.0000       0.877946        23.8901 
  39   0.0000       0.926666        25.2159 
  40   0.0000       0.944368        25.6976 
  41   0.0000       0.986279        26.8380 
  42   0.0000       1.034120        28.1398 
  43   0.0000       1.089806        29.6551 
  44   0.0000       1.145640        31.1744 
  45   0.0000       1.165147        31.7053 
  46   0.0000       1.234045        33.5801 
  47   0.0000       1.251958        34.0675 
  48   0.0000       1.272050        34.6142 
  49   0.0000       1.284102        34.9422 
  50   0.0000       1.287479        35.0341 
  51   0.0000       1.316550        35.8252 
  52   0.0000       1.349865        36.7317 
  53   0.0000       1.377950        37.4959 
  54   0.0000       1.385870        37.7114 
  55   0.0000       1.427218        38.8366 
  56   0.0000       1.455155        39.5968 
  57   0.0000       1.498208        40.7683 
  58   0.0000       1.513636        41.1881 
  59   0.0000       1.554047        42.2878 
  60   0.0000       1.591422        43.3048 
  61   0.0000       1.612345        43.8742 
  62   0.0000       1.677300        45.6417 
  63   0.0000       1.710980        46.5581 
  64   0.0000       1.770682        48.1827 
  65   0.0000       1.808739        49.2183 
  66   0.0000       1.889135        51.4060 
  67   0.0000       2.111526        57.4575 
  68   0.0000       2.222762        60.4844 
  69   0.0000       2.268486        61.7287 
  70   0.0000       2.341078        63.7040 
  71   0.0000       2.396562        65.2138 
  72   0.0000       2.498976        68.0006 
  73   0.0000       2.588540        70.4377 
  74   0.0000       2.613110        71.1063 
  75   0.0000       2.695416        73.3460 
  76   0.0000       2.700875        73.4945 
  77   0.0000       2.718795        73.9822 
  78   0.0000       2.789003        75.8926 
  79   0.0000       2.888179        78.5913 
  80   0.0000       2.901991        78.9672 
  81   0.0000       2.985055        81.2275 
  82   0.0000       3.062836        83.3440 
  83   0.0000       3.098879        84.3248 
  84   0.0000       3.116403        84.8016 
  85   0.0000       3.176663        86.4414 
  86   0.0000       3.186913        86.7203 
  87   0.0000       3.246739        88.3482 
  88   0.0000       3.263387        88.8013 
  89   0.0000       3.263714        88.8102 
  90   0.0000       3.322333        90.4053 
  91   0.0000       3.325261        90.4849 
  92   0.0000       3.361475        91.4704 
  93   0.0000       3.371845        91.7526 
  94   0.0000       3.417963        93.0075 
  95   0.0000       3.420767        93.0838 
  96   0.0000       3.444449        93.7282 
  97   0.0000       3.450030        93.8801 
  98   0.0000       3.538869        96.2975 
  99   0.0000       3.554461        96.7218 
 100   0.0000       3.629254        98.7570 
 101   0.0000       3.711586       100.9974 
 102   0.0000       3.711974       101.0079 
 103   0.0000       3.730854       101.5217 
 104   0.0000       3.756826       102.2284 
 105   0.0000       3.766339       102.4873 
 106   0.0000       3.798775       103.3699 
 107   0.0000       3.807422       103.6052 
 108   0.0000       3.849606       104.7531 
 109   0.0000       3.881117       105.6106 
 110   0.0000       3.939869       107.2093 
 111   0.0000       4.007101       109.0388 
 112   0.0000       4.032060       109.7179 
 113   0.0000       4.105601       111.7191 
 114   0.0000       4.116287       112.0099 
 115   0.0000       4.140609       112.6717 
 116   0.0000       4.160076       113.2014 
 117   0.0000       4.173531       113.5676 
 118   0.0000       4.195856       114.1750 
 119   0.0000       4.225187       114.9732 
 120   0.0000       4.232151       115.1627 
 121   0.0000       4.313440       117.3747 
 122   0.0000       4.350766       118.3904 
 123   0.0000       4.373098       118.9981 
 124   0.0000       4.373378       119.0057 
 125   0.0000       4.404701       119.8580 
 126   0.0000       4.439064       120.7931 
 127   0.0000       4.443061       120.9018 
 128   0.0000       4.446020       120.9824 
 129   0.0000       4.561099       124.1138 
 130   0.0000       4.587856       124.8419 
 131   0.0000       4.655208       126.6747 
 132   0.0000       4.670663       127.0952 
 133   0.0000       4.702260       127.9550 
 134   0.0000       4.709953       128.1643 
 135   0.0000       4.815207       131.0285 
 136   0.0000       4.890172       133.0683 
 137   0.0000       5.039127       137.1216 
 138   0.0000       5.061283       137.7245 
 139   0.0000       5.079497       138.2202 
 140   0.0000       5.174487       140.8049 
 141   0.0000       5.189335       141.2090 
 142   0.0000       5.221350       142.0802 
 143   0.0000       5.240625       142.6046 
 144   0.0000       5.322577       144.8347 
 145   0.0000       5.332248       145.0979 
 146   0.0000       5.395360       146.8152 
 147   0.0000       5.545706       150.9063 
 148   0.0000       5.581042       151.8679 
 149   0.0000       5.670488       154.3018 
 150   0.0000       5.678610       154.5228 
 151   0.0000       5.693282       154.9221 
 152   0.0000       5.728596       155.8830 
 153   0.0000       5.800340       157.8353 
 154   0.0000       5.811514       158.1393 
 155   0.0000       5.887422       160.2049 
 156   0.0000       5.973117       162.5368 
 157   0.0000       6.159671       167.6132 
 158   0.0000       6.274870       170.7479 
 159   0.0000       6.301994       171.4860 
 160   0.0000       6.312015       171.7587 
 161   0.0000       6.431428       175.0081 
 162   0.0000       6.620829       180.1619 
 163   0.0000       7.002064       190.5358 
 164   0.0000       7.134606       194.1425 
 165   0.0000       7.176803       195.2907 
 166   0.0000       7.241116       197.0408 
 167   0.0000       7.393444       201.1858 
 168   0.0000       7.477467       203.4722 
 169   0.0000       7.669654       208.7019 
 170   0.0000       7.943220       216.1460 
 171   0.0000      12.388681       337.1131 
 172   0.0000      13.099708       356.4612 
 173   0.0000      14.091822       383.4580 
Total SCF time: 0 days 0 hours 0 min 11 sec 

Maximum memory used throughout the entire SCF-calculation: 66.9 MB


           ************************************************************
           *        Program running with 5 parallel MPI-processes     *
           *              working on a common directory               *
           ************************************************************

------------------------------------------------------------------------------
                                ORCA  MP2 
------------------------------------------------------------------------------

Freezing NCore=6 chemical core electrons
Initializing SHARK ... done


------------------------------------------------------------------------------
                           ORCA ORBITAL LOCALIZATION
------------------------------------------------------------------------------

Input orbitals are from                  ... c2h5oh_lw1x-p34_Compound_1.gbw
Output orbitals are to                   ... c2h5oh_lw1x-p34_Compound_1.loc
Max. number of iterations                ... 128
Localizations seeded randomly            ... off
Convergence tolerance                    ... 1.000e-06
Treshold for strong local MOs            ... 9.500e-01
Treshold for bond MOs                    ... 8.500e-01
Operator                                 ... 0
Orbital range for localization           ... 3 to 12
Localization criterion                   ... FOSTER-BOYS (AUGMENTED HESSIAN)
Doing the dipole integrals     ... o.k.
Initial value of the localization sum :    42.103466
ITERATION   0 : L=   61.5143299202 DL=  1.94e+01 (AVERGE_DL)=    0.6567743432 
ITERATION   1 : L=   62.8644823967 DL=  1.35e+00 (AVERGE_DL)=    0.1732148618 
ITERATION   2 : L=   62.8861000131 DL=  2.16e-02 (AVERGE_DL)=    0.0219178347 
ITERATION   3 : L=   62.8877205164 DL=  1.62e-03 (AVERGE_DL)=    0.0060009320 
ITERATION   4 : L=   62.8878784999 DL=  1.58e-04 (AVERGE_DL)=    0.0018736981 
ITERATION   5 : L=   62.8878949980 DL=  1.65e-05 (AVERGE_DL)=    0.0006054938 
ITERATION   6 : L=   62.8878965401 DL=  1.54e-06 (AVERGE_DL)=    0.0001851240 
ITERATION   7 : L=   62.8878966792 DL=  1.39e-07 (AVERGE_DL)=    0.0000555806 
LOCALIZATION SUM CONVERGED

------------------------------------------------------
AUGMENTED HESSIAN OPTIMIZATION OF FOSTER-BOYS ORBITALS
------------------------------------------------------

Spin operator:           0
Orbital window:          3 to 12
Number of iterations:    128
Gradient tolerance:      1.000e-06
Number of pairs:         45
Davidson threshold:      2000
Diagonalization method:  LAPACK
Iter:    0   L: 62.8878966792   Grad. norm: 4.086774e-04
   *** Likely close to a maximum now. ***
       Augmented Hessian eigenvalues:  2.80e-08 -1.36e+00 -3.50e+00 -5.12e+00 ... 
Iter:    1   L: 62.8878966931   Grad. norm: 1.434922e-08
LOCALIZATION HAS CONVERGED.

Eigenvalues of the Hessian:
  0 -1.359e+00
  1 -3.505e+00
  2 -5.119e+00
  3 -5.520e+00
  4 -7.475e+00
  5 -1.028e+01
  6 -1.698e+01
  7 -1.772e+01
  8 -1.776e+01
  9 -1.842e+01
    ...


------------------------------------------------------------------------------- 
                    LOCALIZED MOLECULAR ORBITAL COMPOSITIONS                   
------------------------------------------------------------------------------- 

The Mulliken populations for each LMO on each atom are computed
The LMO`s will be ordered according to atom index and type
  (A) Strongly localized MO`s have populations of >=0.950 on one atom
  (B) Two center bond orbitals have populations of >=0.850 on two atoms
  (C) Other MO`s are considered to be `delocalized`

FOUND  -   2 strongly local MO`s
       -   8 two center bond MO`s
       -   0 significantly delocalized MO`s

Rather strongly localized orbitals:
MO   4:   2O  -   0.983557
MO   3:   2O  -   0.983557
Bond-like localized orbitals:
MO  12:   8H  -   0.469501  and   0C  -   0.553799
MO  11:   7H  -   0.469501  and   0C  -   0.553799
MO  10:   6H  -   0.481188  and   0C  -   0.541843
MO   9:   5H  -   0.500744  and   1C  -   0.537690
MO   8:   4H  -   0.500744  and   1C  -   0.537689
MO   7:   3H  -   0.392806  and   2O  -   0.612045
MO   6:   2O  -   0.664172  and   1C  -   0.346465
MO   5:   1C  -   0.521710  and   0C  -   0.509438
Localized MO's were stored in: c2h5oh_lw1x-p34_Compound_1.loc



Calculating differential overlap integrals ... ok
Threshold for domain construction in prescreening: TCutDOPre = 3.0e-02

--------------------------
ELECTRON PAIR PRESCREENING
--------------------------

Dipole-based pair screening          .... used

   TCutDOij = 1.000000e-05
   TCutPre  = 1.000000e-06
   .... Finished loop over pairs
Total time spent in the prescreening                  ...     0.003 sec
sum of pair energies estimated for screened out pairs ...       0.000000000000 Eh

---------------------------
MAP CONSTRUCTION THRESHOLDS
---------------------------
    TCutMKN     ...     1.0e-03
    TCutDO      ...     5.0e-03
    TCutC(MO)   ...     1.0e-03
    TCutC(PAO)  ...     1.0e-03

--------------------------------
LOCAL RI TRANSFORMATION (IAVPAO)
--------------------------------

Orbital window:       3 to 12
Number of PAOs:     174
Basis functions:    174 (66 shells)
Aux. functions:     789 (249 shells)
Use SHARK:           on

Processing maps (0.0 sec)
Average map sizes:
   Aux shells -> MOs              10.0
   Aux shells -> PAOs            174.0
   MOs        -> AO shells        64.8
   PAOs       -> AO shells        66.0

Calculating integrals (0.2 sec, 10.483 MB)
Sorting integrals (0.0 sec, 10.474 MB)
Total time for the integral transformation: 0.3 sec

----------------------------
Local MP2 Energy Calculation
----------------------------
Number of orbital pairs included:     55
Truncation parameters:
    PAOOverlapThresh    =        1.000e-08
    TCutPNO             =        1.000e-09

Spin component scaling                      .... not used
MP2 energy scaling factor                   .... 1.000

Formation of semicanonical amplitudes.
 10% done.
 20% done.
 30% done.
 40% done.
 50% done.
 60% done.
 70% done.
 80% done.
 90% done.
100% done.

Finished the LMP2 guess in 0.6 sec.

Average number of PAOs per pair        174.0
Average number of nrPAOs per pair      161.0
Average number of PNOs per pair        103.8
Average number of AUX  per pair        705.4

Semicanonical MP2 energy:                   -0.585467224281 Eh
Semicanonical MP2 energy in PNO basis:      -0.585462598788 Eh

Initial amplitudes guess done. Entering DLPNO-MP2 iteration loop:
   Max. no of iterations          ...  100
   Energy convergence tolerance   ...    1.0e-06 Eh
   Residual convergence tolerance ...    5.0e-06
   Fock matrix cutoff             ...    1.0e-05 Eh
   Max # vectors in DIIS          ...  7
   Start iteration of DIIS        ...  0
   Levelshift                     ...  2.000e-01 Eh
   Damping before turning on DIIS ...  5.000e-01
   Damping after turning on DIIS  ...  0.000e+00

                           *** Turning on DIIS ***
Iter=   0:  ECORR= -0.595641169801  DE=   1.0e-02 RMAX=   4.6e-03
Iter=   1:  ECORR= -0.600987060618  DE=   5.3e-03 RMAX=   2.7e-03
Iter=   2:  ECORR= -0.601785664018  DE=   8.0e-04 RMAX=   4.9e-04
Iter=   3:  ECORR= -0.601871838494  DE=   8.6e-05 RMAX=   1.7e-04
Iter=   4:  ECORR= -0.601876998251  DE=   5.2e-06 RMAX=   2.5e-05
Iter=   5:  ECORR= -0.601876394403  DE=   6.0e-07 RMAX=   8.5e-06
Iter=   6:  ECORR= -0.601876262523  DE=   1.3e-07 RMAX=   9.3e-07 => CONVERGED

Finished the DLPNO-MP2 iterations in 3.1 sec.

LMP2 correlation energy (all non-screened pairs)      ...     -0.601876262523 Eh
Semicanonical PNO correction to energy                ...     -0.000004625493 Eh
Sum of pair energies estimated for screened out pairs ...      0.000000000000 Eh
                                                         -----------------------
Total:                                                ...     -0.601880888017 Eh

------------------------------------------------------
 DLPNO-MP2 CORRELATION ENERGY:      -0.601880888017 Eh
------------------------------------------------------

TIMINGS FOR DLPNO-MP2:
Localization                             ...        0.224 sec
Differential overlap integrals           ...        1.221 sec
Prescreening                             ...        0.206 sec
Map setup                                ...        0.003 sec
(ia|v) trafo                             ...        0.272 sec
Semicanonical amplitudes                 ...        0.484 sec
PNO construction                         ...        0.078 sec
DLPNO-MP2 iterations                     ...        3.101 sec
                                             ----------------
Total time                                          6.066 sec


---------------------------------------
MP2 TOTAL ENERGY:     -154.825336699 Eh
---------------------------------------

Maximum memory used throughout the entire MP2-calculation: 112.4 MB

-------------------------   --------------------
FINAL SINGLE POINT ENERGY      -154.825336699228
-------------------------   --------------------


                            ***************************************
                            *     ORCA property calculations      *
                            ***************************************


  WARNING: The energy has been calculated at the MP2 level but the densities
           used in the property calculations are still SCF densities
           MP2 response densities have not been calculated 
           use %mp2 Density relaxed end
           or  %mp2 Density unrelaxed end

                                    ---------------------
                                    Active property flags
                                    ---------------------
   (+) Dipole Moment


------------------------------------------------------------------------------
                       ORCA ELECTRIC PROPERTIES CALCULATION
------------------------------------------------------------------------------

Dipole Moment Calculation                       ... on
Quadrupole Moment Calculation                   ... off
Polarizability Calculation                      ... off
GBWName                                         ... c2h5oh_lw1x-p34_Compound_1.gbw
Electron density                                ... c2h5oh_lw1x-p34_Compound_1.scfp
The origin for moment calculation is the CENTER OF MASS  = (-0.102910, -0.034330  0.000000)

-------------
DIPOLE MOMENT
-------------
                                X             Y             Z
Electronic contribution:     -2.63228      -0.23211      -0.00000
Nuclear contribution   :      2.67566       0.89256       0.00000
                        -----------------------------------------
Total Dipole Moment    :      0.04338       0.66046      -0.00000
                        -----------------------------------------
Magnitude (a.u.)       :      0.66188
Magnitude (Debye)      :      1.68237



--------------------
Rotational spectrum 
--------------------
 
Rotational constants in cm-1:     1.176223     0.312024     0.271644 
Rotational constants in MHz : 35262.282415  9354.254825  8143.687185 

 Dipole components along the rotational axes: 
x,y,z [a.u.] :     0.027887     0.661295    -0.000000 
x,y,z [Debye]:     0.070884     1.680877    -0.000000 

 

Timings for individual modules:

Sum of individual times         ...       25.793 sec (=   0.430 min)
GTO integral calculation        ...        5.235 sec (=   0.087 min)  20.3 %
Relativistic integrals          ...        0.866 sec (=   0.014 min)   3.4 %
SCF iterations                  ...       13.058 sec (=   0.218 min)  50.6 %
MP2 module                      ...        6.635 sec (=   0.111 min)  25.7 %


################################################################################


                                COMPOUND JOB  2 
Basename: c2h5oh_lw1x-p34_Compound_2
NOTE: please remember that MaxCore and PAL settings will be ignored.

################################################################################

================================================================================
                                       INPUT FILE
================================================================================
NAME = c2h5oh_lw1x-p34_Compound_2.inp
|  1>     ! DefGrid3 RIJCOSX TightPNO DLPNO-MP2 MiniPrint NoPop
|  2>     %Basis
|  3>       Basis         "cc-pVTZ"
|  4>       AuxJ          "AutoAux"
|  5>       AuxC          "AutoAux"
|  6>       CABS          "AutoAux"
|  7>       NewECP     Ga "SK-MCDHF-RSC" End
|  8>       NewGTO     Ga "cc-pVTZ-PP"   End
|  9>       NewAuxjGTO Ga "AutoAux" End
| 10>       NewAuxcGTO Ga "AutoAux" End
| 11>       NewCabsGTO Ga "AutoAux" End
| 12>       NewECP     Ge "SK-MCDHF-RSC" End
| 13>       NewGTO     Ge "cc-pVTZ-PP"   End
| 14>       NewAuxjGTO Ge "AutoAux" End
| 15>       NewAuxcGTO Ge "AutoAux" End
| 16>       NewCabsGTO Ge "AutoAux" End
| 17>       NewECP     As "SK-MCDHF-RSC" End
| 18>       NewGTO     As "cc-pVTZ-PP"   End
| 19>       NewAuxjGTO As "AutoAux" End
| 20>       NewAuxcGTO As "AutoAux" End
| 21>       NewCabsGTO As "AutoAux" End
| 22>       NewECP     Se "SK-MCDHF-RSC" End
| 23>       NewGTO     Se "cc-pVTZ-PP"   End
| 24>       NewAuxjGTO Se "AutoAux" End
| 25>       NewAuxcGTO Se "AutoAux" End
| 26>       NewCabsGTO Se "AutoAux" End
| 27>       NewECP     Br "SK-MCDHF-RSC" End
| 28>       NewGTO     Br "cc-pVTZ-PP"   End
| 29>       NewAuxjGTO Br "AutoAux" End
| 30>       NewAuxcGTO Br "AutoAux" End
| 31>       NewCabsGTO Br "AutoAux" End
| 32>       NewECP     Kr "SK-MCDHF-RSC" End
| 33>       NewGTO     Kr "cc-pVTZ-PP"   End
| 34>       NewAuxjGTO Kr "AutoAux" End
| 35>       NewAuxcGTO Kr "AutoAux" End
| 36>       NewCabsGTO Kr "AutoAux" End
| 37>       NewECP     In "SK-MCDHF-RSC" End
| 38>       NewGTO     In "cc-pVTZ-PP"   End
| 39>       NewAuxjGTO In "AutoAux" End
| 40>       NewAuxcGTO In "AutoAux" End
| 41>       NewCabsGTO In "AutoAux" End
| 42>       NewECP     Sn "SK-MCDHF-RSC" End
| 43>       NewGTO     Sn "cc-pVTZ-PP"   End
| 44>       NewAuxjGTO Sn "AutoAux" End
| 45>       NewAuxcGTO Sn "AutoAux" End
| 46>       NewCabsGTO Sn "AutoAux" End
| 47>       NewECP     Sb "SK-MCDHF-RSC" End
| 48>       NewGTO     Sb "cc-pVTZ-PP"   End
| 49>       NewAuxjGTO Sb "AutoAux" End
| 50>       NewAuxcGTO Sb "AutoAux" End
| 51>       NewCabsGTO Sb "AutoAux" End
| 52>       NewECP     Te "SK-MCDHF-RSC" End
| 53>       NewGTO     Te "cc-pVTZ-PP"   End
| 54>       NewAuxjGTO Te "AutoAux" End
| 55>       NewAuxcGTO Te "AutoAux" End
| 56>       NewCabsGTO Te "AutoAux" End
| 57>       NewECP     I  "SK-MCDHF-RSC" End
| 58>       NewGTO     I  "cc-pVTZ-PP"   End
| 59>       NewAuxjGTO I  "AutoAux" End
| 60>       NewAuxcGTO I  "AutoAux" End
| 61>       NewCabsGTO I  "AutoAux" End
| 62>       NewECP     Xe "SK-MCDHF-RSC" End
| 63>       NewGTO     Xe "cc-pVTZ-PP"   End
| 64>       NewAuxjGTO Xe "AutoAux" End
| 65>       NewAuxcGTO Xe "AutoAux" End
| 66>       NewCabsGTO Xe "AutoAux" End
| 67>     End
| 68> 
| 69>                          ****END OF INPUT****
================================================================================
Warning! AutoAux has not been tested for CABS - use at your own risk!
================================================================================

----- Orbital basis set information -----
Your calculation utilizes the basis: cc-pVTZ 
       H, B-Ne : Obtained from the ccRepo (grant-hill.group.shef.ac.uk/ccrepo) Feb. 2017
                 T. H. Dunning, Jr., J. Chem. Phys. 90, 1007 (1989)
            He : Obtained from the ccRepo (grant-hill.group.shef.ac.uk/ccrepo) Feb. 2017
                 D. E. Woon, T. H. Dunning, Jr., J. Chem. Phys. 100, 2975 (1994)
  Li-Be, Na-Mg : Obtained from the ccRepo (grant-hill.group.shef.ac.uk/ccrepo) Feb. 2017
                 B. P. Prascher, D. E. Woon, K. A. Peterson, T. H. Dunning, Jr., A. K. Wilson, Theor. Chem. Acc. 128, 69 (2011)
         Al-Ar : Obtained from the ccRepo (grant-hill.group.shef.ac.uk/ccrepo) Feb. 2017
                 D. E. Woon, T. H. Dunning, Jr., J. Chem. Phys. 98, 1358 (1993)
            Ca : Obtained from the Peterson Research Group Website (tyr0.chem.wsu.edu/~kipeters) Feb. 2017
                 J. Koput, K. A. Peterson, J. Phys. Chem. 106, 9595 (2002)
         Sc-Zn : Obtained from the ccRepo (grant-hill.group.shef.ac.uk/ccrepo) Feb. 2017
                 N. B. Balabanov, K. A. Peterson, J. Chem. Phys. 123, 064107 (2005)
                 N. B. Balabanov, K. A. Peterson, J. Chem. Phys. 125, 074110 (2006)
         Ga-Kr : Obtained from the ccRepo (grant-hill.group.shef.ac.uk/ccrepo) Feb. 2017
                 A. K. Wilson, D. E. Woon, K. A. Peterson, T. H. Dunning, Jr., J. Chem. Phys. 110, 7667 (1999)
             Y : Obtained from the ccRepo (grant-hill.group.shef.ac.uk/ccrepo) Feb. 2017
                 K. A. Peterson, D. Figgen, M. Dolg, H. Stoll, J. Chem. Phys. 126, 124101 (2007)
        Ag, Au : Obtained from the Peterson Research Group Website (tyr0.chem.wsu.edu/~kipeters) Feb. 2017
                 K. A. Peterson, C. Puzzarini, Theor. Chem. Acc. 114, 283 (2005)

The basis set includes element-specific modifications.

Your calculation utilizes the basis: cc-pVTZ-PP 
       Ca, Sr, Ba, Ra : Obtained from the Peterson Research Group Website (tyr0.chem.wsu.edu/~kipeters) Feb. 2017
                        H. Li, H. Feng, W. Sun, Y. Zhang, Q. Fan, K. A. Peterson, Y. Xie, H. F. Schaefer III, Mol. Phys. 111, 2292 (2013)
  Cu-Zn, Ag-Cd, Au-Hg : Obtained from the ccRepo (grant-hill.group.shef.ac.uk/ccrepo) Feb. 2017
                        K. A. Peterson, C. Puzzarini, Theor. Chem. Acc. 114, 283 (2005)
  Ga-Kr, In-Xe, Tl-Rn : Obtained from the ccRepo (grant-hill.group.shef.ac.uk/ccrepo) Feb. 2017
                        K. A. Peterson, J. Chem. Phys. 119, 11099 (2003)
                        K. A. Peterson, D. Figgen, E. Goll, H. Stoll, M. Dolg, J. Chem. Phys. 119, 11113 (2003)
                 Y-Pd : Obtained from the ccRepo (grant-hill.group.shef.ac.uk/ccrepo) Feb. 2017
                        K. A. Peterson, D. Figgen, M. Dolg, H. Stoll, J. Chem. Phys. 126, 124101 (2007)
                Hf-Pt : Obtained from the ccRepo (grant-hill.group.shef.ac.uk/ccrepo) Feb. 2017
                        D. Figgen, K. A. Peterson, M. Dolg, H. Stoll, J. Chem. Phys. 130, 164108 (2009)
                    U : Obtained from the ccRepo (grant-hill.group.shef.ac.uk/ccrepo) Feb. 2020
                        K. A. Peterson, J. Chem. Phys. 142, 074105 (2015)

----- AuxJ basis set information -----
Your calculation utilizes the AutoAux generation procedure.
  G. L. Stoychev, A. A. Auer, F. Neese, J. Chem. Theory Comput. 13, 554 (2017)

The basis set includes element-specific modifications.

----- AuxC basis set information -----
Your calculation utilizes the AutoAux generation procedure.
  G. L. Stoychev, A. A. Auer, F. Neese, J. Chem. Theory Comput. 13, 554 (2017)

The basis set includes element-specific modifications.

----- CABS information -----
Your calculation utilizes the AutoAux generation procedure.
  G. L. Stoychev, A. A. Auer, F. Neese, J. Chem. Theory Comput. 13, 554 (2017)

The basis set includes element-specific modifications.


                    <<< The CABS basis set will be decontracted >>>

================================================================================
                                        WARNINGS
                       Please study these warnings very carefully!
================================================================================


WARNING: No MP2 level density has been requested!
         To caclulate MP2 level properties use
         %mp2 Density relaxed end
         or
         %mp2 Density unrelaxed end

WARNING: Post HF methods need fully converged wavefunctions
  ===> : Setting SCFConvForced true
         You can overwrite this default with %scf ConvForced false 


INFO   : the flag for use of the SHARK integral package has been found!


                       ****************************
                       * Single Point Calculation *
                       ****************************

---------------------------------
CARTESIAN COORDINATES (ANGSTROEM)
---------------------------------
  C      1.174266   -0.402393    0.000000
  C      0.000000    0.553968    0.000000
  O     -1.198609   -0.219376    0.000000
  H     -1.951507    0.377618    0.000000
  H      0.042676    1.200562    0.884607
  H      0.042676    1.200562   -0.884607
  H      2.116030    0.148166    0.000000
  H      1.146699   -1.040676    0.883284
  H      1.146699   -1.040676   -0.883284

----------------------------
CARTESIAN COORDINATES (A.U.)
----------------------------
  NO LB      ZA    FRAG     MASS         X           Y           Z
   0 C     6.0000    0    12.011    2.219041   -0.760413    0.000000
   1 C     6.0000    0    12.011    0.000000    1.046848    0.000000
   2 O     8.0000    0    15.999   -2.265043   -0.414561    0.000000
   3 H     1.0000    0     1.008   -3.687814    0.713595    0.000000
   4 H     1.0000    0     1.008    0.080646    2.268733    1.671665
   5 H     1.0000    0     1.008    0.080646    2.268733   -1.671665
   6 H     1.0000    0     1.008    3.998717    0.279993    0.000000
   7 H     1.0000    0     1.008    2.166947   -1.966593    1.669165
   8 H     1.0000    0     1.008    2.166947   -1.966593   -1.669165



           ************************************************************
           *        Program running with 5 parallel MPI-processes     *
           *              working on a common directory               *
           ************************************************************
------------------------------------------------------------------------------
                   ___                                                        
                  /   \      - P O W E R E D   B Y -                         
                 /     \                                                     
                 |  |  |   _    _      __       _____    __    __             
                 |  |  |  | |  | |    /  \     |  _  \  |  |  /  |          
                  \  \/   | |  | |   /    \    | | | |  |  | /  /          
                 / \  \   | |__| |  /  /\  \   | |_| |  |  |/  /          
                |  |  |   |  __  | /  /__\  \  |    /   |      \           
                |  |  |   | |  | | |   __   |  |    \   |  |\   \          
                \     /   | |  | | |  |  |  |  | |\  \  |  | \   \       
                 \___/    |_|  |_| |__|  |__|  |_| \__\ |__|  \__/        
                                                                              
                      - O R C A' S   B I G   F R I E N D -                    
                                      &                                       
                       - I N T E G R A L  F E E D E R -                       
                                                                              
 v1 FN, 2020, v2 2021                                                         
------------------------------------------------------------------------------


Reading SHARK input file c2h5oh_lw1x-p34_Compound_2.SHARKINP.tmp ... ok
----------------------
SHARK INTEGRAL PACKAGE
----------------------

Number of atoms                             ...      9
Number of basis functions                   ...    174
Number of shells                            ...     66
Maximum angular momentum                    ...      3
Integral batch strategy                     ... SHARK/LIBINT Hybrid
RI-J (if used) integral strategy            ... SPLIT-RIJ (Revised 2003 algorithm where possible)
Printlevel                                  ...      1
Contraction scheme used                     ... SEGMENTED contraction
Coulomb Range Separation                    ... NOT USED
Exchange Range Separation                   ... NOT USED
Finite Nucleus Model                        ... NOT USED
Auxiliary Coulomb fitting basis             ... AVAILABLE
   # of basis functions in Aux-J            ...    789
   # of shells in Aux-J                     ...    249
   Maximum angular momentum in Aux-J        ...      4
Auxiliary J/K fitting basis                 ... NOT available
Auxiliary Correlation fitting basis         ... AVAILABLE
   # of basis functions in Aux-C            ...    789
   # of shells in Aux-C                     ...    249
   Maximum angular momentum in Aux-C        ...      4
Auxiliary 'external' fitting basis          ... NOT available
Integral threshold                          ...     1.000000e-10
Primitive cut-off                           ...     1.000000e-11
Primitive pair pre-selection threshold      ...     1.000000e-11

Calculating pre-screening integrals         ... done (  0.0 sec) Dimension = 66
Organizing shell pair data                  ... done (  0.0 sec)
Shell pair information
Total number of shell pairs                 ...      2211
Shell pairs after pre-screening             ...      2189
Total number of primitive shell pairs       ...      8196
Primitive shell pairs kept                  ...      6689
          la=0 lb=0:    461 shell pairs
          la=1 lb=0:    622 shell pairs
          la=1 lb=1:    227 shell pairs
          la=2 lb=0:    357 shell pairs
          la=2 lb=1:    249 shell pairs
          la=2 lb=2:     78 shell pairs
          la=3 lb=0:     90 shell pairs
          la=3 lb=1:     63 shell pairs
          la=3 lb=2:     36 shell pairs
          la=3 lb=3:      6 shell pairs

Calculating one electron integrals          ... done (  0.0 sec)
Calculating RI/J V-Matrix + Cholesky decomp.... done (  0.2 sec)
Calculating RI/C V-Matrix + Cholesky decomp.... done (  0.1 sec)
Calculating Nuclear repulsion               ... done (  0.0 sec) ENN=     81.790161863375 Eh

SHARK setup successfully completed in   0.4 seconds

Maximum memory used throughout the entire GTOINT-calculation: 17.8 MB


           ************************************************************
           *        Program running with 5 parallel MPI-processes     *
           *              working on a common directory               *
           ************************************************************

Diagonalization of the overlap matrix:
Smallest eigenvalue                        ... 1.033e-03
Time for diagonalization                   ...    0.004 sec
Threshold for overlap eigenvalues          ... 1.000e-08
Number of eigenvalues below threshold      ... 0
Time for construction of square roots      ...    0.009 sec
Total time needed                          ...    0.014 sec

--------------------
COSX GRID GENERATION
--------------------

GRIDX 1
-------
General Integration Accuracy     IntAcc      ... 4.020
Radial Grid Type                 RadialGrid  ... OptM3 with GC (2021)
Angular Grid (max. ang.)         AngularGrid ... 2 (Lebedev-110)
Angular grid pruning method      GridPruning ... 4 (adaptive)
Weight generation scheme         WeightScheme... Becke
Basis function cutoff            BFCut       ... 1.0000e-10
Integration weight cutoff        WCut        ... 1.0000e-14
Angular grids for H and He will be reduced by one unit
Partially contracted basis set               ... on
Rotationally invariant grid construction     ... off

Total number of grid points                  ...    10214
Total number of batches                      ...      163
Average number of points per batch           ...       62
Average number of grid points per atom       ...     1135
UseSFitting                                  ... on

GRIDX 2
-------
General Integration Accuracy     IntAcc      ... 4.338
Radial Grid Type                 RadialGrid  ... OptM3 with GC (2021)
Angular Grid (max. ang.)         AngularGrid ... 3 (Lebedev-194)
Angular grid pruning method      GridPruning ... 4 (adaptive)
Weight generation scheme         WeightScheme... Becke
Basis function cutoff            BFCut       ... 1.0000e-10
Integration weight cutoff        WCut        ... 1.0000e-14
Angular grids for H and He will be reduced by one unit
Partially contracted basis set               ... on
Rotationally invariant grid construction     ... off

Total number of grid points                  ...    22494
Total number of batches                      ...      354
Average number of points per batch           ...       63
Average number of grid points per atom       ...     2499
UseSFitting                                  ... on

GRIDX 3
-------
General Integration Accuracy     IntAcc      ... 4.871
Radial Grid Type                 RadialGrid  ... OptM3 with GC (2021)
Angular Grid (max. ang.)         AngularGrid ... 4 (Lebedev-302)
Angular grid pruning method      GridPruning ... 4 (adaptive)
Weight generation scheme         WeightScheme... Becke
Basis function cutoff            BFCut       ... 1.0000e-10
Integration weight cutoff        WCut        ... 1.0000e-14
Angular grids for H and He will be reduced by one unit
Partially contracted basis set               ... on
Rotationally invariant grid construction     ... off

Total number of grid points                  ...    45100
Total number of batches                      ...      708
Average number of points per batch           ...       63
Average number of grid points per atom       ...     5011
UseSFitting                                  ... on

Time for X-Grid setup             =    0.632 sec

 re-compute Schwartz prescreening matrix in partically contracted basis (1) ...done (   0.080 sec)
--------------
SCF ITERATIONS
--------------
ITER       Energy         Delta-E        Max-DP      RMS-DP      [F,P]     Damp
               ***  Starting incremental Fock matrix formation  ***
                      *** Initiating the SOSCF procedure ***
                      *** Re-Reading the Fockian *** 
                      *** Removing any level shift *** 
ITER      Energy       Delta-E        Grad      Rot      Max-DP    RMS-DP
  0   -154.14252437 -154.1425243663  0.002212  0.002212  0.001065  0.000012
               *** Restarting incremental Fock matrix formation ***
  1   -154.14253090  -0.0000065338  0.000137  0.000136  0.000327  0.000007
  2   -154.14253162  -0.0000007219  0.000092  0.000043  0.000248  0.000003
                 **** Energy Check signals convergence ****
              ***Rediagonalizing the Fockian in SOSCF/NRSCF***

               *****************************************************
               *                     SUCCESS                       *
               *           SCF CONVERGED AFTER   3 CYCLES          *
               *****************************************************

Old exchange energy                            =    -20.781502324 Eh
New exchange energy                            =    -20.781496189 Eh
Exchange energy change after final integration =      0.000006135 Eh
Total energy after final integration           =   -154.142525706 Eh
Final COS-X integration done in                =     1.528 sec
Total Energy       :         -154.14252571 Eh           -4194.43137 eV
  Last Energy change         ...   -2.1976e-07  Tolerance :   1.0000e-06
  Last MAX-Density change    ...    2.6645e-15  Tolerance :   1.0000e-05
             **** THE GBW FILE WAS UPDATED (c2h5oh_lw1x-p34_Compound_2.gbw) ****
             **** DENSITY c2h5oh_lw1x-p34_Compound_2.scfp WAS UPDATED ****
             **** ENERGY FILE WAS UPDATED (c2h5oh_lw1x-p34_Compound_2.en.tmp) ****
             **** THE GBW FILE WAS UPDATED (c2h5oh_lw1x-p34_Compound_2.gbw) ****
             **** DENSITY c2h5oh_lw1x-p34_Compound_2.scfp WAS UPDATED ****
----------------
ORBITAL ENERGIES
----------------

  NO   OCC          E(Eh)            E(eV) 
   0   2.0000     -20.549254      -559.1736 
   1   2.0000     -11.273500      -306.7675 
   2   2.0000     -11.211067      -305.0687 
   3   2.0000      -1.352002       -36.7899 
   4   2.0000      -1.010863       -27.5070 
   5   2.0000      -0.832934       -22.6653 
   6   2.0000      -0.695488       -18.9252 
   7   2.0000      -0.642471       -17.4825 
   8   2.0000      -0.568499       -15.4696 
   9   2.0000      -0.531800       -14.4710 
  10   2.0000      -0.523835       -14.2543 
  11   2.0000      -0.486695       -13.2437 
  12   2.0000      -0.440094       -11.9756 
  13   0.0000       0.138667         3.7733 
  14   0.0000       0.168464         4.5841 
  15   0.0000       0.198426         5.3994 
  16   0.0000       0.200713         5.4617 
  17   0.0000       0.222690         6.0597 
  18   0.0000       0.246953         6.7199 
  19   0.0000       0.319761         8.7011 
  20   0.0000       0.328955         8.9513 
  21   0.0000       0.382105        10.3976 
  22   0.0000       0.402601        10.9553 
  23   0.0000       0.453353        12.3364 
  24   0.0000       0.479362        13.0441 
  25   0.0000       0.551472        15.0063 
  26   0.0000       0.561123        15.2689 
  27   0.0000       0.589976        16.0541 
  28   0.0000       0.633575        17.2405 
  29   0.0000       0.647520        17.6199 
  30   0.0000       0.665101        18.0983 
  31   0.0000       0.669795        18.2260 
  32   0.0000       0.676103        18.3977 
  33   0.0000       0.725060        19.7299 
  34   0.0000       0.742797        20.2125 
  35   0.0000       0.756587        20.5878 
  36   0.0000       0.794177        21.6106 
  37   0.0000       0.845457        23.0061 
  38   0.0000       0.877934        23.8898 
  39   0.0000       0.926678        25.2162 
  40   0.0000       0.944390        25.6982 
  41   0.0000       0.986290        26.8383 
  42   0.0000       1.034154        28.1408 
  43   0.0000       1.089852        29.6564 
  44   0.0000       1.145695        31.1759 
  45   0.0000       1.165183        31.7062 
  46   0.0000       1.234118        33.5821 
  47   0.0000       1.251980        34.0681 
  48   0.0000       1.272119        34.6161 
  49   0.0000       1.284207        34.9451 
  50   0.0000       1.287508        35.0349 
  51   0.0000       1.316645        35.8277 
  52   0.0000       1.349914        36.7330 
  53   0.0000       1.377986        37.4969 
  54   0.0000       1.385946        37.7135 
  55   0.0000       1.427354        38.8403 
  56   0.0000       1.455175        39.5973 
  57   0.0000       1.498294        40.7706 
  58   0.0000       1.513760        41.1915 
  59   0.0000       1.554148        42.2905 
  60   0.0000       1.591516        43.3074 
  61   0.0000       1.612587        43.8807 
  62   0.0000       1.677678        45.6519 
  63   0.0000       1.711052        46.5601 
  64   0.0000       1.771170        48.1960 
  65   0.0000       1.809307        49.2338 
  66   0.0000       1.889731        51.4222 
  67   0.0000       2.111497        57.4568 
  68   0.0000       2.222891        60.4879 
  69   0.0000       2.268511        61.7293 
  70   0.0000       2.341257        63.7088 
  71   0.0000       2.397081        65.2279 
  72   0.0000       2.499216        68.0071 
  73   0.0000       2.588937        70.4486 
  74   0.0000       2.613568        71.1188 
  75   0.0000       2.695779        73.3559 
  76   0.0000       2.701112        73.5010 
  77   0.0000       2.719217        73.9937 
  78   0.0000       2.789378        75.9028 
  79   0.0000       2.888530        78.6009 
  80   0.0000       2.902371        78.9775 
  81   0.0000       2.985439        81.2379 
  82   0.0000       3.063279        83.3561 
  83   0.0000       3.099238        84.3346 
  84   0.0000       3.116736        84.8107 
  85   0.0000       3.177065        86.4523 
  86   0.0000       3.187268        86.7300 
  87   0.0000       3.247052        88.3568 
  88   0.0000       3.263732        88.8107 
  89   0.0000       3.264093        88.8205 
  90   0.0000       3.322707        90.4154 
  91   0.0000       3.325661        90.4958 
  92   0.0000       3.362117        91.4879 
  93   0.0000       3.372280        91.7644 
  94   0.0000       3.418496        93.0220 
  95   0.0000       3.421184        93.0951 
  96   0.0000       3.444838        93.7388 
  97   0.0000       3.450490        93.8926 
  98   0.0000       3.539353        96.3107 
  99   0.0000       3.554924        96.7344 
 100   0.0000       3.629693        98.7690 
 101   0.0000       3.712079       101.0108 
 102   0.0000       3.712497       101.0222 
 103   0.0000       3.731341       101.5350 
 104   0.0000       3.757344       102.2425 
 105   0.0000       3.766857       102.5014 
 106   0.0000       3.799426       103.3876 
 107   0.0000       3.807883       103.6178 
 108   0.0000       3.850234       104.7702 
 109   0.0000       3.881688       105.6261 
 110   0.0000       3.940380       107.2232 
 111   0.0000       4.007603       109.0524 
 112   0.0000       4.032644       109.7338 
 113   0.0000       4.106273       111.7374 
 114   0.0000       4.117029       112.0301 
 115   0.0000       4.141200       112.6878 
 116   0.0000       4.160858       113.2227 
 117   0.0000       4.174235       113.5867 
 118   0.0000       4.196472       114.1918 
 119   0.0000       4.225830       114.9907 
 120   0.0000       4.232732       115.1785 
 121   0.0000       4.314360       117.3997 
 122   0.0000       4.351476       118.4097 
 123   0.0000       4.373697       119.0143 
 124   0.0000       4.374228       119.0288 
 125   0.0000       4.405333       119.8752 
 126   0.0000       4.439879       120.8153 
 127   0.0000       4.443693       120.9190 
 128   0.0000       4.446807       121.0038 
 129   0.0000       4.561881       124.1351 
 130   0.0000       4.588584       124.8617 
 131   0.0000       4.656001       126.6962 
 132   0.0000       4.671438       127.1163 
 133   0.0000       4.703122       127.9785 
 134   0.0000       4.710799       128.1874 
 135   0.0000       4.816199       131.0555 
 136   0.0000       4.891622       133.1078 
 137   0.0000       5.040041       137.1465 
 138   0.0000       5.062060       137.7456 
 139   0.0000       5.081097       138.2637 
 140   0.0000       5.175371       140.8290 
 141   0.0000       5.190386       141.2376 
 142   0.0000       5.222319       142.1065 
 143   0.0000       5.241486       142.6281 
 144   0.0000       5.324225       144.8795 
 145   0.0000       5.333208       145.1240 
 146   0.0000       5.396727       146.8524 
 147   0.0000       5.546643       150.9318 
 148   0.0000       5.582097       151.8966 
 149   0.0000       5.671596       154.3320 
 150   0.0000       5.679686       154.5521 
 151   0.0000       5.694327       154.9505 
 152   0.0000       5.729731       155.9139 
 153   0.0000       5.801707       157.8725 
 154   0.0000       5.812601       158.1689 
 155   0.0000       5.888940       160.2462 
 156   0.0000       5.974155       162.5650 
 157   0.0000       6.160889       167.6463 
 158   0.0000       6.276263       170.7858 
 159   0.0000       6.303296       171.5214 
 160   0.0000       6.313379       171.7958 
 161   0.0000       6.432650       175.0413 
 162   0.0000       6.622812       180.2159 
 163   0.0000       7.003761       190.5820 
 164   0.0000       7.136222       194.1865 
 165   0.0000       7.178624       195.3403 
 166   0.0000       7.243092       197.0946 
 167   0.0000       7.395374       201.2384 
 168   0.0000       7.480392       203.5518 
 169   0.0000       7.672041       208.7669 
 170   0.0000       7.946197       216.2270 
 171   0.0000      12.420674       337.9837 
 172   0.0000      13.119418       356.9975 
 173   0.0000      14.111196       383.9852 
Total SCF time: 0 days 0 hours 0 min 6 sec 

Maximum memory used throughout the entire SCF-calculation: 67.1 MB


           ************************************************************
           *        Program running with 5 parallel MPI-processes     *
           *              working on a common directory               *
           ************************************************************

------------------------------------------------------------------------------
                                ORCA  MP2 
------------------------------------------------------------------------------

Freezing NCore=6 chemical core electrons
Initializing SHARK ... done


------------------------------------------------------------------------------
                           ORCA ORBITAL LOCALIZATION
------------------------------------------------------------------------------

Input orbitals are from                  ... c2h5oh_lw1x-p34_Compound_2.gbw
[...]
  85   0.0000       3.110592        84.6435 
  86   0.0000       3.182995        86.6137 
  87   0.0000       3.205578        87.2282 
  88   0.0000       3.241013        88.1924 
  89   0.0000       3.253718        88.5382 
  90   0.0000       3.254157        88.5501 
  91   0.0000       3.305597        89.9499 
  92   0.0000       3.319509        90.3284 
  93   0.0000       3.335487        90.7632 
  94   0.0000       3.366544        91.6083 
  95   0.0000       3.371128        91.7331 
  96   0.0000       3.414522        92.9139 
  97   0.0000       3.417429        92.9930 
  98   0.0000       3.446465        93.7831 
  99   0.0000       3.462307        94.2142 
 100   0.0000       3.504508        95.3625 
 101   0.0000       3.559185        96.8503 
 102   0.0000       3.627856        98.7190 
 103   0.0000       3.687413       100.3396 
 104   0.0000       3.701784       100.7307 
 105   0.0000       3.719115       101.2023 
 106   0.0000       3.742404       101.8360 
 107   0.0000       3.757988       102.2601 
 108   0.0000       3.804327       103.5210 
 109   0.0000       3.842523       104.5604 
 110   0.0000       3.869984       105.3076 
 111   0.0000       3.923604       106.7667 
 112   0.0000       3.934416       107.0609 
 113   0.0000       4.003975       108.9537 
 114   0.0000       4.011508       109.1587 
 115   0.0000       4.065584       110.6302 
 116   0.0000       4.104019       111.6760 
 117   0.0000       4.134666       112.5100 
 118   0.0000       4.146898       112.8428 
 119   0.0000       4.150242       112.9338 
 120   0.0000       4.194576       114.1402 
 121   0.0000       4.209450       114.5449 
 122   0.0000       4.228895       115.0741 
 123   0.0000       4.334845       117.9571 
 124   0.0000       4.343805       118.2010 
 125   0.0000       4.352844       118.4469 
 126   0.0000       4.370247       118.9205 
 127   0.0000       4.404877       119.8628 
 128   0.0000       4.428413       120.5032 
 129   0.0000       4.432963       120.6271 
 130   0.0000       4.526598       123.1750 
 131   0.0000       4.554991       123.9476 
 132   0.0000       4.617192       125.6402 
 133   0.0000       4.658919       126.7756 
 134   0.0000       4.680028       127.3500 
 135   0.0000       4.723039       128.5204 
 136   0.0000       4.741646       129.0267 
 137   0.0000       4.948917       134.6669 
 138   0.0000       4.995751       135.9413 
 139   0.0000       5.020834       136.6238 
 140   0.0000       5.047407       137.3469 
 141   0.0000       5.089748       138.4991 
 142   0.0000       5.128652       139.5577 
 143   0.0000       5.180875       140.9788 
 144   0.0000       5.227149       142.2380 
 145   0.0000       5.293779       144.0511 
 146   0.0000       5.298181       144.1708 
 147   0.0000       5.520567       150.2223 
 148   0.0000       5.544053       150.8613 
 149   0.0000       5.593791       152.2148 
 150   0.0000       5.600529       152.3982 
 151   0.0000       5.643580       153.5696 
 152   0.0000       5.686233       154.7303 
 153   0.0000       5.693821       154.9367 
 154   0.0000       5.756079       156.6309 
 155   0.0000       5.804171       157.9395 
 156   0.0000       5.836576       158.8213 
 157   0.0000       5.960602       162.1962 
 158   0.0000       6.033009       164.1665 
 159   0.0000       6.172374       167.9588 
 160   0.0000       6.220849       169.2779 
 161   0.0000       6.258430       170.3005 
 162   0.0000       6.285460       171.0361 
 163   0.0000       6.334221       172.3629 
 164   0.0000       6.423291       174.7866 
 165   0.0000       6.930187       188.5800 
 166   0.0000       7.000007       190.4799 
 167   0.0000       7.130360       194.0270 
 168   0.0000       7.218014       196.4122 
 169   0.0000       7.241876       197.0615 
 170   0.0000       7.392406       201.1576 
 171   0.0000       7.549905       205.4433 
 172   0.0000       7.846258       213.5075 
 173   0.0000       8.358123       227.4361 
 174   0.0000      11.276452       306.8479 
 175   0.0000      11.422441       310.8204 
 176   0.0000      11.525436       313.6231 
 177   0.0000      11.549903       314.2888 
 178   0.0000      11.620286       316.2041 
 179   0.0000      11.623184       316.2829 
 180   0.0000      13.326936       362.6444 
 181   0.0000      13.506452       367.5292 
 182   0.0000      15.011311       408.4785 
 183   0.0000      15.026559       408.8935 
 184   0.0000      15.104752       411.0212 
 185   0.0000      15.135099       411.8470 
 186   0.0000      15.145485       412.1296 
 187   0.0000      15.599129       424.4739 
 188   0.0000      15.662440       426.1966 
 189   0.0000      15.746119       428.4737 
 190   0.0000      15.751952       428.6324 
 191   0.0000      16.103824       438.2073 
 192   0.0000      19.155994       521.2611 
 193   0.0000      19.582759       532.8740 
 194   0.0000      20.226705       550.3966 
 195   0.0000      22.836106       621.4020 
 196   0.0000      30.160578       820.7111 
 197   0.0000      30.248081       823.0921 
 198   0.0000      30.260904       823.4411 
 199   0.0000      30.360254       826.1445 
 200   0.0000      30.612867       833.0185 
 201   0.0000      50.941043      1386.1763 
 202   0.0000      51.051643      1389.1858 
 203   0.0000      51.162606      1392.2053 
 204   0.0000      51.204384      1393.3421 
 205   0.0000      51.235337      1394.1844 
 206   0.0000      51.237521      1394.2438 
 207   0.0000      63.004986      1714.4528 
 208   0.0000      63.324065      1723.1354 
 209   0.0000      90.519361      2463.1570 
 210   0.0000      90.850177      2472.1590 
 211   0.0000      91.282200      2483.9149 
 212   0.0000     107.992394      2938.6224 
Total SCF time: 0 days 0 hours 0 min 5 sec 

Maximum memory used throughout the entire SCF-calculation: 69.7 MB


           ************************************************************
           *        Program running with 5 parallel MPI-processes     *
           *              working on a common directory               *
           ************************************************************

------------------------------------------------------------------------------
                                ORCA  MP2 
------------------------------------------------------------------------------

Freezing NCore=0 chemical core electrons
Initializing SHARK ... done


------------------------------------------------------------------------------
                           ORCA ORBITAL LOCALIZATION
------------------------------------------------------------------------------

Input orbitals are from                  ... c2h5oh_lw1x-p34_Compound_6.gbw
Output orbitals are to                   ... c2h5oh_lw1x-p34_Compound_6.loc
Max. number of iterations                ... 128
Localizations seeded randomly            ... off
Convergence tolerance                    ... 1.000e-06
Treshold for strong local MOs            ... 9.500e-01
Treshold for bond MOs                    ... 8.500e-01
Operator                                 ... 0
Orbital range for localization           ... 0 to 12
Localization criterion                   ... FOSTER-BOYS (AUGMENTED HESSIAN)
Doing the dipole integrals     ... o.k.
Initial value of the localization sum :    53.694201
ITERATION   0 : L=   73.1654365069 DL=  1.95e+01 (AVERGE_DL)=    0.4996310844 
ITERATION   1 : L=   74.8130227765 DL=  1.65e+00 (AVERGE_DL)=    0.1453371972 
ITERATION   2 : L=   74.8377153781 DL=  2.47e-02 (AVERGE_DL)=    0.0177924651 
ITERATION   3 : L=   74.8392785612 DL=  1.56e-03 (AVERGE_DL)=    0.0044766963 
ITERATION   4 : L=   74.8394347923 DL=  1.56e-04 (AVERGE_DL)=    0.0014152605 
ITERATION   5 : L=   74.8394514351 DL=  1.66e-05 (AVERGE_DL)=    0.0004619199 
ITERATION   6 : L=   74.8394530252 DL=  1.59e-06 (AVERGE_DL)=    0.0001427755 
ITERATION   7 : L=   74.8394531719 DL=  1.47e-07 (AVERGE_DL)=    0.0000433806 
LOCALIZATION SUM CONVERGED

------------------------------------------------------
AUGMENTED HESSIAN OPTIMIZATION OF FOSTER-BOYS ORBITALS
------------------------------------------------------

Spin operator:           0
Orbital window:          0 to 12
Number of iterations:    128
Gradient tolerance:      1.000e-06
Number of pairs:         78
Davidson threshold:      2000
Diagonalization method:  LAPACK
Iter:    0   L: 74.8394531719   Grad. norm: 4.794483e-04
   *** Likely close to a maximum now. ***
       Augmented Hessian eigenvalues:  3.11e-08 -9.38e-01 -1.37e+00 -1.42e+00 ... 
Iter:    1   L: 74.8394531875   Grad. norm: 1.588200e-08
LOCALIZATION HAS CONVERGED.

Eigenvalues of the Hessian:
  0 -9.382e-01
  1 -1.370e+00
  2 -1.416e+00
  3 -3.490e+00
  4 -3.509e+00
  5 -4.865e+00
  6 -5.128e+00
  7 -5.549e+00
  8 -7.089e+00
  9 -7.134e+00
    ...


------------------------------------------------------------------------------- 
                    LOCALIZED MOLECULAR ORBITAL COMPOSITIONS                   
------------------------------------------------------------------------------- 

The Mulliken populations for each LMO on each atom are computed
The LMO`s will be ordered according to atom index and type
  (A) Strongly localized MO`s have populations of >=0.950 on one atom
  (B) Two center bond orbitals have populations of >=0.850 on two atoms
  (C) Other MO`s are considered to be `delocalized`

FOUND  -   5 strongly local MO`s
       -   8 two center bond MO`s
       -   0 significantly delocalized MO`s

Rather strongly localized orbitals:
MO   4:   2O  -   0.982931
MO   3:   2O  -   0.982931
MO   2:   2O  -   1.000095
MO   1:   1C  -   1.001191
MO   0:   0C  -   1.001126
Bond-like localized orbitals:
MO  12:   8H  -   0.483290  and   0C  -   0.535124
MO  11:   7H  -   0.483290  and   0C  -   0.535124
MO  10:   6H  -   0.497813  and   0C  -   0.519605
MO   9:   5H  -   0.517033  and   1C  -   0.518845
MO   8:   4H  -   0.517032  and   1C  -   0.518845
MO   7:   3H  -   0.398377  and   2O  -   0.608356
MO   6:   2O  -   0.667699  and   1C  -   0.345198
MO   5:   1C  -   0.523462  and   0C  -   0.511643
Localized MO's were stored in: c2h5oh_lw1x-p34_Compound_6.loc



Calculating differential overlap integrals ... ok
Threshold for domain construction in prescreening: TCutDOPre = 3.0e-02

--------------------------
ELECTRON PAIR PRESCREENING
--------------------------

Dipole-based pair screening          .... used

   TCutDOij = 1.000000e-05
   TCutPre  = 1.000000e-06
   .... Finished loop over pairs
Total time spent in the prescreening                  ...     0.006 sec
sum of pair energies estimated for screened out pairs ...       0.000000000000 Eh

---------------------------
MAP CONSTRUCTION THRESHOLDS
---------------------------
    TCutMKN     ...     1.0e-03
    TCutDO      ...     5.0e-03
    TCutC(MO)   ...     1.0e-03
    TCutC(PAO)  ...     1.0e-03

--------------------------------
LOCAL RI TRANSFORMATION (IAVPAO)
--------------------------------

Orbital window:       0 to 12
Number of PAOs:     213
Basis functions:    213 (81 shells)
Aux. functions:     987 (285 shells)
Use SHARK:           on

Processing maps (0.0 sec)
Average map sizes:
   Aux shells -> MOs              13.0
   Aux shells -> PAOs            213.0
   MOs        -> AO shells        77.3
   PAOs       -> AO shells        81.0

Calculating integrals (0.3 sec, 20.862 MB)
Sorting integrals (0.1 sec, 20.851 MB)
Total time for the integral transformation: 0.5 sec

----------------------------
Local MP2 Energy Calculation
----------------------------
Number of orbital pairs included:     91
Truncation parameters:
    PAOOverlapThresh    =        1.000e-08
    TCutPNO             =        1.000e-09

Spin component scaling                      .... not used
MP2 energy scaling factor                   .... 1.000

Formation of semicanonical amplitudes.
 10% done.
 20% done.
 30% done.
 40% done.
 50% done.
 60% done.
 70% done.
 80% done.
 90% done.
100% done.

Finished the LMP2 guess in 1.6 sec.

Average number of PAOs per pair        213.0
Average number of nrPAOs per pair      200.0
Average number of PNOs per pair         82.7
Average number of AUX  per pair        840.2

Semicanonical MP2 energy:                   -0.731086027468 Eh
Semicanonical MP2 energy in PNO basis:      -0.731067695080 Eh

Initial amplitudes guess done. Entering DLPNO-MP2 iteration loop:
   Max. no of iterations          ...  100
   Energy convergence tolerance   ...    1.0e-06 Eh
   Residual convergence tolerance ...    5.0e-06
   Fock matrix cutoff             ...    1.0e-05 Eh
   Max # vectors in DIIS          ...  7
   Start iteration of DIIS        ...  0
   Levelshift                     ...  2.000e-01 Eh
   Damping before turning on DIIS ...  5.000e-01
   Damping after turning on DIIS  ...  0.000e+00

                           *** Turning on DIIS ***
Iter=   0:  ECORR= -0.743216474981  DE=   1.2e-02 RMAX=   2.7e-02
Iter=   1:  ECORR= -0.751850325023  DE=   8.6e-03 RMAX=   1.1e-02
Iter=   2:  ECORR= -0.753228382635  DE=   1.4e-03 RMAX=   2.9e-03
Iter=   3:  ECORR= -0.753536614555  DE=   3.1e-04 RMAX=   6.3e-04
Iter=   4:  ECORR= -0.753561310985  DE=   2.5e-05 RMAX=   7.1e-05
Iter=   5:  ECORR= -0.753560864964  DE=   4.5e-07 RMAX=   1.9e-05
Iter=   6:  ECORR= -0.753560407576  DE=   4.6e-07 RMAX=   2.7e-06 => CONVERGED

Finished the DLPNO-MP2 iterations in 10.4 sec.

LMP2 correlation energy (all non-screened pairs)      ...     -0.753560407576 Eh
Semicanonical PNO correction to energy                ...     -0.000018332388 Eh
Sum of pair energies estimated for screened out pairs ...      0.000000000000 Eh
                                                         -----------------------
Total:                                                ...     -0.753578739963 Eh

------------------------------------------------------
 DLPNO-MP2 CORRELATION ENERGY:      -0.753578739963 Eh
------------------------------------------------------

TIMINGS FOR DLPNO-MP2:
Localization                             ...        0.242 sec
Differential overlap integrals           ...        1.284 sec
Prescreening                             ...        0.173 sec
Map setup                                ...        0.002 sec
(ia|v) trafo                             ...        0.461 sec
Semicanonical amplitudes                 ...        1.226 sec
PNO construction                         ...        0.182 sec
DLPNO-MP2 iterations                     ...       10.406 sec
                                             ----------------
Total time                                         14.787 sec


---------------------------------------
MP2 TOTAL ENERGY:     -154.896891204 Eh
---------------------------------------

Maximum memory used throughout the entire MP2-calculation: 115.4 MB

-------------------------   --------------------
FINAL SINGLE POINT ENERGY      -154.896891204184
-------------------------   --------------------


                            ***************************************
                            *     ORCA property calculations      *
                            ***************************************


  WARNING: The energy has been calculated at the MP2 level but the densities
           used in the property calculations are still SCF densities
           MP2 response densities have not been calculated 
           use %mp2 Density relaxed end
           or  %mp2 Density unrelaxed end

                                    ---------------------
                                    Active property flags
                                    ---------------------
   (+) Dipole Moment


------------------------------------------------------------------------------
                       ORCA ELECTRIC PROPERTIES CALCULATION
------------------------------------------------------------------------------

Dipole Moment Calculation                       ... on
Quadrupole Moment Calculation                   ... off
Polarizability Calculation                      ... off
GBWName                                         ... c2h5oh_lw1x-p34_Compound_6.gbw
Electron density                                ... c2h5oh_lw1x-p34_Compound_6.scfp
The origin for moment calculation is the CENTER OF MASS  = (-0.102910, -0.034330  0.000000)

-------------
DIPOLE MOMENT
-------------
                                X             Y             Z
Electronic contribution:     -2.63298      -0.23145       0.00000
Nuclear contribution   :      2.67566       0.89256       0.00000
                        -----------------------------------------
Total Dipole Moment    :      0.04269       0.66112       0.00000
                        -----------------------------------------
Magnitude (a.u.)       :      0.66249
Magnitude (Debye)      :      1.68393



--------------------
Rotational spectrum 
--------------------
 
Rotational constants in cm-1:     1.176223     0.312024     0.271644 
Rotational constants in MHz : 35262.282415  9354.254825  8143.687185 

 Dipole components along the rotational axes: 
x,y,z [a.u.] :     0.028648     0.661875     0.000000 
x,y,z [Debye]:     0.072816     1.682353     0.000000 

 

Timings for individual modules:

Sum of individual times         ...       22.056 sec (=   0.368 min)
GTO integral calculation        ...        0.707 sec (=   0.012 min)   3.2 %
SCF iterations                  ...        6.019 sec (=   0.100 min)  27.3 %
MP2 module                      ...       15.330 sec (=   0.255 min)  69.5 %
================================================================================

----- Orbital basis set information -----
Your calculation utilizes the basis: def2-SVP
   F. Weigend and R. Ahlrichs, Phys. Chem. Chem. Phys. 7, 3297 (2005).



----------------------------------------------------------------------------------------------
                                        COMPOUND BLOCK                                        
                                     SUMMARY OF VARIABLES                                     
----------------------------------------------------------------------------------------------

Variable Name                                           Value             Evaluation String
-------------                                           -----             -----------------
HF_DZ                                    |            -154.14917161    |  
EC_DZ                                    |              -0.66588758    |  
CC_DZ                                    |              -0.65257716    |  EC_DZ-T_DZ
T_DZ                                     |              -0.01331042    |  
HF_TZ                                    |            -154.15475118    |  
EC_TZ                                    |              -0.69742905    |  
CC_TZ                                    |              -0.67497001    |  EC_TZ-T_TZ
T_TZ                                     |              -0.02245903    |  
HF_CBS                                   |            -154.15559737    |  HF_TZ-(HF_TZ-HF_DZ)*3^-5/(3^-5-2^-5)
CC_CBS                                   |              -0.67880746    |  CC_TZ-(CC_TZ-CC_DZ)*3^-4.7405/(3^-4.7405-2^-4.7405)
T_CBS                                    |              -0.02932923    |  T_TZ-(T_TZ-T_DZ)*3^-2.0879/(3^-2.0879-2^-2.0879)
MP_FC                                    |            -154.75397653    |  
MP_FU                                    |            -154.89689120    |  
MP_CV                                    |              -0.14291468    |  MP_FU-MP_FC
MP_PP                                    |            -154.74411566    |  
MP_DK                                    |            -154.82533670    |  
MP_REL                                   |              -0.08122104    |  MP_DK-MP_PP
LW1X                                     |            -155.08786978    |  HF_CBS+CC_CBS+T_CBS+MP_CV+MP_REL
                             ****ORCA TERMINATED NORMALLY****
TOTAL RUN TIME: 0 days 0 hours 9 minutes 49 seconds 211 msec
