
                                 *****************
                                 * O   R   C   A *
                                 *****************

                                            #,                                       
                                            ###                                      
                                            ####                                     
                                            #####                                    
                                            ######                                   
                                           ########,                                 
                                     ,,################,,,,,                         
                               ,,#################################,,                 
                          ,,##########################################,,             
                       ,#########################################, ''#####,          
                    ,#############################################,,   '####,        
                  ,##################################################,,,,####,       
                ,###########''''           ''''###############################       
              ,#####''   ,,,,##########,,,,          '''####'''          '####       
            ,##' ,,,,###########################,,,                        '##       
           ' ,,###''''                  '''############,,,                           
         ,,##''                                '''############,,,,        ,,,,,,###''
      ,#''                                            '''#######################'''  
     '                                                          ''''####''''         
             ,#######,   #######,   ,#######,      ##                                
            ,#'     '#,  ##    ##  ,#'     '#,    #''#        ######   ,####,        
            ##       ##  ##   ,#'  ##            #'  '#       #        #'  '#        
            ##       ##  #######   ##           ,######,      #####,   #    #        
            '#,     ,#'  ##    ##  '#,     ,#' ,#      #,         ##   #,  ,#        
             '#######'   ##     ##  '#######'  #'      '#     #####' # '####'        



                  #######################################################
                  #                        -***-                        #
                  #          Department of theory and spectroscopy      #
                  #    Directorship and core code : Frank Neese         #
                  #        Max Planck Institute fuer Kohlenforschung    #
                  #                Kaiser Wilhelm Platz 1               #
                  #                 D-45470 Muelheim/Ruhr               #
                  #                      Germany                        #
                  #                                                     #
                  #                  All rights reserved                #
                  #                        -***-                        #
                  #######################################################


                         Program Version 5.0.1 -  RELEASE  -


 With contributions from (in alphabetic order):
   Daniel Aravena         : Magnetic Suceptibility
   Michael Atanasov       : Ab Initio Ligand Field Theory (pilot matlab implementation)
   Alexander A. Auer      : GIAO ZORA, VPT2 properties, NMR spectrum
   Ute Becker             : Parallelization
   Giovanni Bistoni       : ED, misc. LED, open-shell LED, HFLD
   Martin Brehm           : Molecular dynamics
   Dmytro Bykov           : SCF Hessian
   Vijay G. Chilkuri      : MRCI spin determinant printing, contributions to CSF-ICE
   Dipayan Datta          : RHF DLPNO-CCSD density
   Achintya Kumar Dutta   : EOM-CC, STEOM-CC
   Dmitry Ganyushin       : Spin-Orbit,Spin-Spin,Magnetic field MRCI
   Miquel Garcia          : C-PCM and meta-GGA Hessian, CC/C-PCM, Gaussian charge scheme
   Yang Guo               : DLPNO-NEVPT2, F12-NEVPT2, CIM, IAO-localization
   Andreas Hansen         : Spin unrestricted coupled pair/coupled cluster methods
   Benjamin Helmich-Paris : MC-RPA, TRAH-SCF, COSX integrals
   Lee Huntington         : MR-EOM, pCC
   Robert Izsak           : Overlap fitted RIJCOSX, COSX-SCS-MP3, EOM
   Marcus Kettner         : VPT2
   Christian Kollmar      : KDIIS, OOCD, Brueckner-CCSD(T), CCSD density, CASPT2, CASPT2-K
   Simone Kossmann        : Meta GGA functionals, TD-DFT gradient, OOMP2, MP2 Hessian
   Martin Krupicka        : Initial AUTO-CI
   Lucas Lang             : DCDCAS
   Marvin Lechner         : AUTO-CI (C++ implementation), FIC-MRCC
   Dagmar Lenk            : GEPOL surface, SMD
   Dimitrios Liakos       : Extrapolation schemes; Compound Job, initial MDCI parallelization
   Dimitrios Manganas     : Further ROCIS development; embedding schemes
   Dimitrios Pantazis     : SARC Basis sets
   Anastasios Papadopoulos: AUTO-CI, single reference methods and gradients
   Taras Petrenko         : DFT Hessian,TD-DFT gradient, ASA, ECA, R-Raman, ABS, FL, XAS/XES, NRVS
   Peter Pinski           : DLPNO-MP2, DLPNO-MP2 Gradient
   Christoph Reimann      : Effective Core Potentials
   Marius Retegan         : Local ZFS, SOC
   Christoph Riplinger    : Optimizer, TS searches, QM/MM, DLPNO-CCSD(T), (RO)-DLPNO pert. Triples
   Tobias Risthaus        : Range-separated hybrids, TD-DFT gradient, RPA, STAB
   Michael Roemelt        : Original ROCIS implementation
   Masaaki Saitow         : Open-shell DLPNO-CCSD energy and density
   Barbara Sandhoefer     : DKH picture change effects
   Avijit Sen             : IP-ROCIS
   Kantharuban Sivalingam : CASSCF convergence, NEVPT2, FIC-MRCI
   Bernardo de Souza      : ESD, SOC TD-DFT
   Georgi Stoychev        : AutoAux, RI-MP2 NMR, DLPNO-MP2 response
   Willem Van den Heuvel  : Paramagnetic NMR
   Boris Wezisla          : Elementary symmetry handling
   Frank Wennmohs         : Technical directorship


 We gratefully acknowledge several colleagues who have allowed us to
 interface, adapt or use parts of their codes:
   Stefan Grimme, W. Hujo, H. Kruse, P. Pracht,  : VdW corrections, initial TS optimization,
                  C. Bannwarth, S. Ehlert          DFT functionals, gCP, sTDA/sTD-DF
   Ed Valeev, F. Pavosevic, A. Kumar             : LibInt (2-el integral package), F12 methods
   Garnet Chan, S. Sharma, J. Yang, R. Olivares  : DMRG
   Ulf Ekstrom                                   : XCFun DFT Library
   Mihaly Kallay                                 : mrcc  (arbitrary order and MRCC methods)
   Jiri Pittner, Ondrej Demel                    : Mk-CCSD
   Frank Weinhold                                : gennbo (NPA and NBO analysis)
   Christopher J. Cramer and Donald G. Truhlar   : smd solvation model
   Lars Goerigk                                  : TD-DFT with DH, B97 family of functionals
   V. Asgeirsson, H. Jonsson                     : NEB implementation
   FAccTs GmbH                                   : IRC, NEB, NEB-TS, DLPNO-Multilevel, CI-OPT
                                                   MM, QMMM, 2- and 3-layer-ONIOM, Crystal-QMMM,
                                                   LR-CPCM, SF, NACMEs, symmetry and pop. for TD-DFT,
                                                   nearIR, NL-DFT gradient (VV10), updates on ESD,
                                                   ML-optimized integration grids
   S Lehtola, MJT Oliveira, MAL Marques          : LibXC Library
   Liviu Ungur et al                             : ANISO software


 Your calculation uses the libint2 library for the computation of 2-el integrals
 For citations please refer to: http://libint.valeyev.net

 Your ORCA version has been built with support for libXC version: 5.1.0
 For citations please refer to: https://tddft.org/programs/libxc/

 This ORCA versions uses:
   CBLAS   interface :  Fast vector & matrix operations
   LAPACKE interface :  Fast linear algebra routines
   SCALAPACK package :  Parallel linear algebra routines
   Shared memory     :  Shared parallel matrices
   BLAS/LAPACK       :  OpenBLAS 0.3.15  USE64BITINT DYNAMIC_ARCH NO_AFFINITY SkylakeX SINGLE_THREADED
        Core in use  :  SkylakeX
   Copyright (c) 2011-2014, The OpenBLAS Project




################################################################################


                                COMPOUND JOB MainJOB 
Basename: h2o_lw1x_Compound_0

################################################################################

================================================================================
                                       INPUT FILE
================================================================================
NAME = h2o_lw1x_Compound_0.inp
|  1> %Maxcore 1000
|  2>  %Pal nprocs 5 End
|  3>  
|  4>  * xyz 0 1
|  5>  O        0.000000    0.000000    0.117688 
|  6>  H        0.000000    0.760247   -0.470754 
|  7>  H        0.000000   -0.760247   -0.470754 
|  8>  *
|  9>  
| 10> 
| 11>                          ****END OF INPUT****
================================================================================
================================================================================

----- Orbital basis set information -----
Your calculation utilizes the basis: def2-SVP
   F. Weigend and R. Ahlrichs, Phys. Chem. Chem. Phys. 7, 3297 (2005).



################################################################################


                                COMPOUND JOB  1 
Basename: h2o_lw1x_Compound_1
NOTE: please remember that MaxCore and PAL settings will be ignored.

################################################################################

================================================================================
                                       INPUT FILE
================================================================================
NAME = h2o_lw1x_Compound_1.inp
|  1>     ! DefGrid3 RIJCOSX TightPNO DLPNO-CCSD(T1)-F12 MiniPrint NoPop
|  2>     %Basis
|  3>       Basis "maug-cc-pV(D+d)Z"
|  4>       AuxJ  "AutoAux"
|  5>       AuxC  "AutoAux"
|  6>       CABS  "AutoAux"
|  7>     End
|  8> 
|  9>                          ****END OF INPUT****
================================================================================
Warning! AutoAux has not been tested for CABS - use at your own risk!
================================================================================

----- Orbital basis set information -----
Your calculation utilizes the basis: jun-cc-pV(D+d)Z 
  E. Papajak, D. G. Truhlar, J. Chem. Theory Comput. 7, 10-18 (2011).

----- AuxJ basis set information -----
Your calculation utilizes the AutoAux generation procedure.
  G. L. Stoychev, A. A. Auer, F. Neese, J. Chem. Theory Comput. 13, 554 (2017)

----- AuxC basis set information -----
Your calculation utilizes the AutoAux generation procedure.
  G. L. Stoychev, A. A. Auer, F. Neese, J. Chem. Theory Comput. 13, 554 (2017)

----- CABS information -----
Your calculation utilizes the AutoAux generation procedure.
  G. L. Stoychev, A. A. Auer, F. Neese, J. Chem. Theory Comput. 13, 554 (2017)


                    <<< The CABS basis set will be decontracted >>>

================================================================================
                                        WARNINGS
                       Please study these warnings very carefully!
================================================================================


WARNING: Post HF methods need fully converged wavefunctions
  ===> : Setting SCFConvForced true
         You can overwrite this default with %scf ConvForced false 


WARNING: MDCI localization with Augmented Hessian Foster-Boys
  ===> : Switching off randomization!

INFO   : the flag for use of the SHARK integral package has been found!


                       ****************************
                       * Single Point Calculation *
                       ****************************

---------------------------------
CARTESIAN COORDINATES (ANGSTROEM)
---------------------------------
  O      0.000000    0.000000    0.117688
  H      0.000000    0.760247   -0.470754
  H      0.000000   -0.760247   -0.470754

----------------------------
CARTESIAN COORDINATES (A.U.)
----------------------------
  NO LB      ZA    FRAG     MASS         X           Y           Z
   0 O     8.0000    0    15.999    0.000000    0.000000    0.222398
   1 H     1.0000    0     1.008    0.000000    1.436659   -0.889596
   2 H     1.0000    0     1.008    0.000000   -1.436659   -0.889596



           ************************************************************
           *        Program running with 5 parallel MPI-processes     *
           *              working on a common directory               *
           ************************************************************
------------------------------------------------------------------------------
                   ___                                                        
                  /   \      - P O W E R E D   B Y -                         
                 /     \                                                     
                 |  |  |   _    _      __       _____    __    __             
                 |  |  |  | |  | |    /  \     |  _  \  |  |  /  |          
                  \  \/   | |  | |   /    \    | | | |  |  | /  /          
                 / \  \   | |__| |  /  /\  \   | |_| |  |  |/  /          
                |  |  |   |  __  | /  /__\  \  |    /   |      \           
                |  |  |   | |  | | |   __   |  |    \   |  |\   \          
                \     /   | |  | | |  |  |  |  | |\  \  |  | \   \       
                 \___/    |_|  |_| |__|  |__|  |_| \__\ |__|  \__/        
                                                                              
                      - O R C A' S   B I G   F R I E N D -                    
                                      &                                       
                       - I N T E G R A L  F E E D E R -                       
                                                                              
 v1 FN, 2020, v2 2021                                                         
------------------------------------------------------------------------------


Reading SHARK input file h2o_lw1x_Compound_1.SHARKINP.tmp ... ok
----------------------
SHARK INTEGRAL PACKAGE
----------------------

Number of atoms                             ...      3
Number of basis functions                   ...     28
Number of shells                            ...     14
Maximum angular momentum                    ...      2
Integral batch strategy                     ... SHARK/LIBINT Hybrid
RI-J (if used) integral strategy            ... SPLIT-RIJ (Revised 2003 algorithm where possible)
Printlevel                                  ...      1
Contraction scheme used                     ... SEGMENTED contraction
Coulomb Range Separation                    ... NOT USED
Exchange Range Separation                   ... NOT USED
Finite Nucleus Model                        ... NOT USED
Auxiliary Coulomb fitting basis             ... AVAILABLE
   # of basis functions in Aux-J            ...    169
   # of shells in Aux-J                     ...     67
   Maximum angular momentum in Aux-J        ...      3
Auxiliary J/K fitting basis                 ... NOT available
Auxiliary Correlation fitting basis         ... AVAILABLE
   # of basis functions in Aux-C            ...    169
   # of shells in Aux-C                     ...     67
   Maximum angular momentum in Aux-C        ...      3
Auxiliary 'external' fitting basis          ... NOT available
Integral threshold                          ...     1.000000e-10
Primitive cut-off                           ...     1.000000e-11
Primitive pair pre-selection threshold      ...     1.000000e-11

Calculating pre-screening integrals         ... done (  0.0 sec) Dimension = 14
Organizing shell pair data                  ... done (  0.0 sec)
Shell pair information
Total number of shell pairs                 ...       105
Shell pairs after pre-screening             ...       105
Total number of primitive shell pairs       ...       660
Primitive shell pairs kept                  ...       639
          la=0 lb=0:     36 shell pairs
          la=1 lb=0:     40 shell pairs
          la=1 lb=1:     15 shell pairs
          la=2 lb=0:      8 shell pairs
          la=2 lb=1:      5 shell pairs
          la=2 lb=2:      1 shell pairs

Calculating one electron integrals          ... done (  0.0 sec)
Calculating RI/J V-Matrix + Cholesky decomp.... done (  0.0 sec)
Calculating RI/C V-Matrix + Cholesky decomp.... done (  0.0 sec)
Calculating Nuclear repulsion               ... done (  0.0 sec) ENN=      9.155047173065 Eh

SHARK setup successfully completed in   0.1 seconds

Maximum memory used throughout the entire GTOINT-calculation: 11.9 MB


           ************************************************************
           *        Program running with 5 parallel MPI-processes     *
           *              working on a common directory               *
           ************************************************************

Diagonalization of the overlap matrix:
Smallest eigenvalue                        ... 1.234e-02
Time for diagonalization                   ...    0.001 sec
Threshold for overlap eigenvalues          ... 1.000e-08
Number of eigenvalues below threshold      ... 0
Time for construction of square roots      ...    0.007 sec
Total time needed                          ...    0.008 sec

Time for model grid setup =    0.019 sec

Loading Hartree-Fock densities                     ... done
Calculating cut-offs                               ... done
Initializing the effective Hamiltonian             ... done
Setting up the integral package (SHARK)            ... done
Starting the Coulomb interaction                   ... done (   0.0 sec)
Reading the grid                                   ... done
Mapping shells                                     ... done
Starting the XC term evaluation                    ... done (   0.0 sec)
Transforming the Hamiltonian                       ... done (   0.0 sec)
Diagonalizing the Hamiltonian                      ... done (   0.0 sec)
Back transforming the eigenvectors                 ... done (   0.0 sec)
Now organizing SCF variables                       ... done
--------------------
COSX GRID GENERATION
--------------------

GRIDX 1
-------
General Integration Accuracy     IntAcc      ... 4.020
Radial Grid Type                 RadialGrid  ... OptM3 with GC (2021)
Angular Grid (max. ang.)         AngularGrid ... 2 (Lebedev-110)
Angular grid pruning method      GridPruning ... 4 (adaptive)
Weight generation scheme         WeightScheme... Becke
Basis function cutoff            BFCut       ... 1.0000e-10
Integration weight cutoff        WCut        ... 1.0000e-14
Angular grids for H and He will be reduced by one unit
Partially contracted basis set               ... on
Rotationally invariant grid construction     ... off

Total number of grid points                  ...     3924
Total number of batches                      ...       63
Average number of points per batch           ...       62
Average number of grid points per atom       ...     1308
UseSFitting                                  ... on

GRIDX 2
-------
General Integration Accuracy     IntAcc      ... 4.338
Radial Grid Type                 RadialGrid  ... OptM3 with GC (2021)
Angular Grid (max. ang.)         AngularGrid ... 3 (Lebedev-194)
Angular grid pruning method      GridPruning ... 4 (adaptive)
Weight generation scheme         WeightScheme... Becke
Basis function cutoff            BFCut       ... 1.0000e-10
Integration weight cutoff        WCut        ... 1.0000e-14
Angular grids for H and He will be reduced by one unit
Partially contracted basis set               ... on
Rotationally invariant grid construction     ... off

Total number of grid points                  ...     8530
Total number of batches                      ...      134
Average number of points per batch           ...       63
Average number of grid points per atom       ...     2843
UseSFitting                                  ... on

GRIDX 3
-------
General Integration Accuracy     IntAcc      ... 4.871
Radial Grid Type                 RadialGrid  ... OptM3 with GC (2021)
Angular Grid (max. ang.)         AngularGrid ... 4 (Lebedev-302)
Angular grid pruning method      GridPruning ... 4 (adaptive)
Weight generation scheme         WeightScheme... Becke
Basis function cutoff            BFCut       ... 1.0000e-10
Integration weight cutoff        WCut        ... 1.0000e-14
Angular grids for H and He will be reduced by one unit
Partially contracted basis set               ... on
Rotationally invariant grid construction     ... off

Total number of grid points                  ...    16922
Total number of batches                      ...      266
Average number of points per batch           ...       63
Average number of grid points per atom       ...     5641
UseSFitting                                  ... on

Time for X-Grid setup             =    0.264 sec

 re-compute Schwartz prescreening matrix in partically contracted basis (1) ...done (   0.077 sec)
--------------
SCF ITERATIONS
--------------
ITER       Energy         Delta-E        Max-DP      RMS-DP      [F,P]     Damp
               ***  Starting incremental Fock matrix formation  ***
  0    -75.9485177410   0.000000000000 0.06468329  0.00501847  0.3055813 0.7000
  1    -75.9839885595  -0.035470818428 0.04400105  0.00345296  0.1818413 0.7000
                               ***Turning on DIIS***
  2    -76.0024346817  -0.018446122216 0.08313686  0.00642979  0.0981244 0.0000
  3    -75.8334050070   0.169029674665 0.03217770  0.00226425  0.0672954 0.0000
  4    -76.0205867717  -0.187181764706 0.00479741  0.00037273  0.0081195 0.0000
                      *** Initiating the SOSCF procedure ***
                           *** Shutting down DIIS ***
                      *** Re-Reading the Fockian *** 
                      *** Removing any level shift *** 
ITER      Energy       Delta-E        Grad      Rot      Max-DP    RMS-DP
  5    -76.03558723  -0.0150004615  0.001585  0.001585  0.001985  0.000193
               *** Restarting incremental Fock matrix formation ***
  6    -76.03729885  -0.0017116129  0.000615  0.000859  0.001114  0.000095
  7    -76.03730187  -0.0000030257  0.000224  0.000548  0.000679  0.000065
                 **** Energy Check signals convergence ****
              ***Rediagonalizing the Fockian in SOSCF/NRSCF***

               *****************************************************
               *                     SUCCESS                       *
               *           SCF CONVERGED AFTER   8 CYCLES          *
               *****************************************************

Old exchange energy                            =     -8.934752891 Eh
New exchange energy                            =     -8.934797154 Eh
Exchange energy change after final integration =     -0.000044263 Eh
Total energy after final integration           =    -76.037346784 Eh
Final COS-X integration done in                =     0.084 sec
Total Energy       :          -76.03734678 Eh           -2069.08140 eV
  Last Energy change         ...   -6.4964e-07  Tolerance :   1.0000e-06
  Last MAX-Density change    ...    1.3323e-15  Tolerance :   1.0000e-05
             **** THE GBW FILE WAS UPDATED (h2o_lw1x_Compound_1.gbw) ****
             **** DENSITY h2o_lw1x_Compound_1.scfp WAS UPDATED ****
             **** ENERGY FILE WAS UPDATED (h2o_lw1x_Compound_1.en.tmp) ****
             **** THE GBW FILE WAS UPDATED (h2o_lw1x_Compound_1.gbw) ****
             **** DENSITY h2o_lw1x_Compound_1.scfp WAS UPDATED ****
----------------
ORBITAL ENERGIES
----------------

  NO   OCC          E(Eh)            E(eV) 
   0   2.0000     -20.577464      -559.9413 
   1   2.0000      -1.354358       -36.8539 
   2   2.0000      -0.716970       -19.5097 
   3   2.0000      -0.583455       -15.8766 
   4   2.0000      -0.508485       -13.8366 
   5   0.0000       0.135105         3.6764 
   6   0.0000       0.176836         4.8120 
   7   0.0000       0.207900         5.6572 
   8   0.0000       0.215102         5.8532 
   9   0.0000       0.310329         8.4445 
  10   0.0000       0.342164         9.3108 
  11   0.0000       0.925033        25.1714 
  12   0.0000       1.015630        27.6367 
  13   0.0000       1.247616        33.9494 
  14   0.0000       1.272783        34.6342 
  15   0.0000       1.364476        37.1293 
  16   0.0000       1.461687        39.7745 
  17   0.0000       1.503364        40.9086 
  18   0.0000       1.667422        45.3729 
  19   0.0000       1.886028        51.3214 
  20   0.0000       1.921140        52.2769 
  21   0.0000       2.465457        67.0885 
  22   0.0000       2.490228        67.7625 
  23   0.0000       3.263272        88.7981 
  24   0.0000       3.313901        90.1758 
  25   0.0000       3.492429        95.0338 
  26   0.0000       3.864409       105.1559 
  27   0.0000       4.131331       112.4192 
Total SCF time: 0 days 0 hours 0 min 2 sec 

Maximum memory used throughout the entire SCF-calculation: 42.1 MB


           ************************************************************
           *        Program running with 5 parallel MPI-processes     *
           *              working on a common directory               *
           ************************************************************


------------------------------------------------------------------------------- 
                              ORCA-MATRIX DRIVEN CI                            
------------------------------------------------------------------------------- 


Wavefunction type
-----------------
Correlation treatment                      ...      CCSD     
Single excitations                         ... ON
Orbital optimization                       ... OFF
Calculation of Z vector                    ... OFF
Calculation of Brueckner orbitals          ... OFF
Perturbative triple excitations            ... ON
Calculation of F12 correction              ... ON
   Using RI for F12 correction             ... ON
   GSO occupation number cut-off           ... 0.000e+00
Frozen core treatment                      ... chemical core (2 el)
Reference Wavefunction                     ... RHF
  Internal Orbitals:     1 ...    4 (  4 MO's/  8 electrons)
  Virtual  Orbitals:     5 ...   27 ( 23 MO's              )
Number of AO's                             ...     28
Number of electrons                        ...     10
Number of correlated electrons             ...      8

Algorithmic settings
--------------------
Integral transformation                    ... All integrals via the RI transformation
K(C) Formation                             ... RI-DLPNO
   PNO-Integral Storage                    ... ON DISK
   PNO occupation number cut-off           ... 1.000e-07
   Singles PNO occupation number cut-off   ... 3.000e-09
   PNO Mulliken prescreening cut-off       ... 1.000e-03
   Domain cut-off (Mulliken population)    ... 1.000e-03
   PNO Normalization                       ...    1
Maximum number of iterations               ...        50
Convergence tolerance (max. residuum)      ... 2.500e-05
Level shift for amplitude update           ... 2.000e-01
Maximum number of DIIS vectors             ...         7
DIIS turned on at iteration                ...         0
Damping before turning on DIIS             ...     0.500
Damping after turning on DIIS              ...     0.000
Pair specific amplitude update             ... OFF
Natural orbital iterations                 ... OFF
Perturbative natural orbital generation    ... OFF
Printlevel                                 ... 2

Singles Fock matrix elements calculated using PNOs.

Memory handling:
----------------
Maximum memory for working arrays          ...   1000 MB
Data storage in matrix containers          ... UNCOMPRESSED
Data type for integral storage             ... DOUBLE
In-Core Storage of quantities:
   Amplitudes+Sigma Vector      ... NO
   J+K operators                ... NO
   DIIS vectors                 ... NO
   3-external integrals         ... NO
   4-external integrals         ... NO

Localization treatment:
-----------------------
Localization option                        ...    6
Localization threshhold                    ... -1.0e+00
Using relative localization threshhold     ... 1.0e-08
Neglect threshold for strong pairs         ... 1.000e-05 Eh
Prescreening threshold for very weak pairs ... 1.000e-07 Eh

Initializing the integral package          ... done
Localizing the valence orbitals
------------------------------------------------------------------------------
                           ORCA ORBITAL LOCALIZATION
------------------------------------------------------------------------------

Input orbitals are from                  ... h2o_lw1x_Compound_1.gbw
Output orbitals are to                   ... h2o_lw1x_Compound_1.loc
Max. number of iterations                ... 128
Localizations seeded randomly            ... off
Convergence tolerance                    ... 1.000e-06
Using relative localization threshhold   ... 1.000e-08
Treshold for strong local MOs            ... 9.500e-01
Treshold for bond MOs                    ... 8.500e-01
Operator                                 ... 0
Orbital range for localization           ... 1 to 4
Localization criterion                   ... FOSTER-BOYS (AUGMENTED HESSIAN)
Doing the dipole integrals     ... o.k.
Initial value of the localization sum :     0.090917
ITERATION   0 : L=    1.8944737134 DL=  1.80e+00 (AVERGE_DL)=    0.5482634975 
ITERATION   1 : L=    2.4889768748 DL=  5.95e-01 (AVERGE_DL)=    0.3147758889 
ITERATION   2 : L=    2.5186049953 DL=  2.96e-02 (AVERGE_DL)=    0.0702710473 
ITERATION   3 : L=    2.5193156722 DL=  7.11e-04 (AVERGE_DL)=    0.0108832964 
ITERATION   4 : L=    2.5193315173 DL=  1.58e-05 (AVERGE_DL)=    0.0016250682 
ITERATION   5 : L=    2.5193321734 DL=  6.56e-07 (AVERGE_DL)=    0.0003306906 
LOCALIZATION SUM CONVERGED

------------------------------------------------------
AUGMENTED HESSIAN OPTIMIZATION OF FOSTER-BOYS ORBITALS
------------------------------------------------------

Spin operator:           0
Orbital window:          1 to 4
Number of iterations:    128
Gradient tolerance:      1.000e-06
Number of pairs:         6
Davidson threshold:      2000
Diagonalization method:  LAPACK
Iter:    0   L: 2.5193321734   Grad. norm: 5.685753e-04
   *** Likely close to a maximum now. ***
       Augmented Hessian eigenvalues:  7.17e-08 -1.45e+00 -3.49e+00 -5.01e+00 ... 
Iter:    1   L: 2.5193322092   Grad. norm: 1.645013e-08
LOCALIZATION HAS CONVERGED.

Eigenvalues of the Hessian:
  0 -1.453e+00
  1 -3.491e+00
  2 -5.014e+00
  3 -5.560e+00
  4 -7.473e+00
  5 -9.846e+00


------------------------------------------------------------------------------- 
                    LOCALIZED MOLECULAR ORBITAL COMPOSITIONS                   
------------------------------------------------------------------------------- 

The Mulliken populations for each LMO on each atom are computed
The LMO`s will be ordered according to atom index and type
  (A) Strongly localized MO`s have populations of >=0.950 on one atom
  (B) Two center bond orbitals have populations of >=0.850 on two atoms
  (C) Other MO`s are considered to be `delocalized`

FOUND  -   2 strongly local MO`s
       -   2 two center bond MO`s
       -   0 significantly delocalized MO`s

Rather strongly localized orbitals:
MO   2:   0O  -   1.004747
MO   1:   0O  -   1.004747
Bond-like localized orbitals:
MO   4:   2H  -   0.393695  and   0O  -   0.608838
MO   3:   1H  -   0.393695  and   0O  -   0.608838
Localized MO's were stored in: h2o_lw1x_Compound_1.loc

Localizing the core orbitals
------------------------------------------------------------------------------
                           ORCA ORBITAL LOCALIZATION
------------------------------------------------------------------------------

Input orbitals are from                  ... h2o_lw1x_Compound_1.loc
Output orbitals are to                   ... h2o_lw1x_Compound_1.loc
Max. number of iterations                ... 128
Localizations seeded randomly            ... off
Convergence tolerance                    ... 1.000e-06
Using relative localization threshhold   ... 1.000e-08
Treshold for strong local MOs            ... 9.500e-01
Treshold for bond MOs                    ... 8.500e-01
Operator                                 ... 0
Orbital range for localization           ... 0 to 0
Localization criterion                   ... FOSTER-BOYS (AUGMENTED HESSIAN)
Doing the dipole integrals     ... o.k.

ORCA_LOC: ONLY ONE ORBITAL - SKIPPING LOCALIZATION


------------------------------------------------------------------------------- 
                    LOCALIZED MOLECULAR ORBITAL COMPOSITIONS                   
------------------------------------------------------------------------------- 

The Mulliken populations for each LMO on each atom are computed
The LMO`s will be ordered according to atom index and type
  (A) Strongly localized MO`s have populations of >=0.950 on one atom
  (B) Two center bond orbitals have populations of >=0.850 on two atoms
  (C) Other MO`s are considered to be `delocalized`

FOUND  -   1 strongly local MO`s
       -   0 two center bond MO`s
       -   0 significantly delocalized MO`s

Rather strongly localized orbitals:
MO   0:   0O  -   1.000176
Localized MO's were stored in: h2o_lw1x_Compound_1.loc

Warning: reference  - re-canonicalizations have been set to INT 1 VIRT 1
Warning: internal orbitals are localized - no re-canonicalization of internal orbitals
Warning: UsePNO is turned on - no re-canonicalization of internal and virtual orbitals

--------------------------
CLOSED-SHELL FOCK OPERATOR
--------------------------

Restoring SHARK [2] ... ok
Entering RIJCOSX section for the Fock matrix
Trying to retrieve the full J-matrix              ... done
Updating the Fock matrix                          ... done
Making the frozen core Coulomb matrix             ... SHARKdone
Retrieving the full K-matrix                      ... done
Calculating the frozen core K-matrix              ... done
Updating the Fock matrix                          ... done
Time needed for Fock operator              ...            0.232 sec
Reference energy                           ...    -76.037295677

------------------------------
Initializing F12 data
------------------------------

Mapping basis set                  ... done
Dimension of the orbital basis set  = 28
Dimension of the CABS basis set     = 169
Dimension of the AUX basis set      = 169
Threshold for CABS orthogonalization = 1.000e-08
Will use an exponential correlation factor -Exp(-gamma r12)/gamma (gamma= 1.200) fit to 6 Gaussians 
Correlation factor:   
  NGauss  :          6      
  Gaussian expansion: 
    a(0)=     0.275538291  d(0)=    -0.219608291 
    a(1)=     1.140545861  d(1)=    -0.254494187 
    a(2)=     3.958256986  d(2)=    -0.154545985 
    a(3)=    13.126859124  d(3)=    -0.093273119 
    a(4)=    49.287410844  d(4)=    -0.057916694 
    a(5)=   272.920095267  d(5)=    -0.035942168 
Calculating one-electron matrices                       ... done (      0.1 sec)
Calculating pre-screening matrices:                     ...
       .... 1/r12 done          (      0.1 sec)
       .... f12/r12 done        (      0.1 sec)
       .... f12 done            (      0.1 sec)
       .... f12^2 done          (      0.1 sec)
       .... [f12,[T1,f12]] done (      0.1 sec)
                                                        ... done (      0.5 sec)
Making CABS spaces                                      ... done (      0.0 sec)
Calculating 2-index 2-center F12 integrals              ... 
Two index explicit correlation integrals  op=0          ... done (      0.0 sec) 
Two index explicit correlation integrals  op=1          ... done (      0.0 sec) 
Two index explicit correlation integrals  op=2          ... done (      0.0 sec) 
Two index explicit correlation integrals  op=3          ... done (      0.0 sec) 
Two index explicit correlation integrals  op=4          ... done (      0.0 sec) 
                                                            done (      0.2 sec)

--------------
DLPNO SETTINGS (2015 fully linear scaling implementation)
--------------

TCutMKN:           1.000e-03
TCutPAO:           1.000e-03
TCutPNO:           1.000e-07
TCutPNOSingles:    3.000e-09
TCutEN:            9.700e-01
TCutPAOExt:        1.000e-01
TCutPairs:         1.000e-05
TCutPre:           1.000e-07
TCutOSV:           1.000e-06
TCutDOij:          1.000e-05
TCutDO:            5.000e-03
TCutC:             1.000e-04
TCutCPAO:          1.000e-03
TCutCMO:           1.000e-03
TScaleDOMP2PreScr: 2.000e+00
TScaleMKNMP2PreScr:1.000e+01
TScalePNOMP2PreScr:1.000e+00
PAO overlap thresh 1.000e-08
Using PNOs for Singles Fock computation
Use new domains
Use fully linear algorithm
TCutTNO:           1.000e-09
TCutMP2Pairs:      1.000e-06
TCutDOStrong:      2.000e-03
TCutMKNStrong:     1.000e-02
TCutMKNWeak:       1.000e-01
TCutDOWeak:        4.000e-03
NTCutTNO:          1

--------------------------
Mulliken population of the LMOs            ... ok
Performing proximity check                 ... No problems found
Calculating differential overlap integrals ... ok

--------------------------
ELECTRON PAIR PRESCREENING
--------------------------

Dipole-based pair screening          .... used

   TCutDOij = 1.000000e-05
   TCutPre  = 1.000000e-07
   .... Finished loop over pairs
Total time spent in the prescreening                  ...     0.001 sec
sum of pair energies estimated for screened out pairs ...       0.000000000000 Eh
Thresholds for map construction and integral transformation for crude MP2:
   TCutMKN                    ...     1.0e-02
   TCutDO                     ...     1.0e-02
   TCutPairs                  ...     1.0e-05
   TCutPNO_CrudeMP2           ...     1.0e-07
   TCutPNOSingles_CrudeMP2    ...     3.0e-09
--------------------------------
LOCAL RI TRANSFORMATION (IAVPAO)
--------------------------------

Orbital window:       1 to 4
Number of PAOs:      28
Basis functions:     28 (14 shells)
Aux. functions:     169 (67 shells)
Use SHARK:           on

Processing maps (0.0 sec)
Average map sizes:
   Aux shells -> MOs               4.0
   Aux shells -> PAOs             28.0
   MOs        -> AO shells        14.0
   PAOs       -> AO shells        14.0

Calculating integrals (0.1 sec, 0.146 MB)
Sorting integrals (0.0 sec, 0.144 MB)
Total time for the integral transformation: 0.2 sec
--------------------------------
INITIAL GUESS AND PNO GENERATION
--------------------------------

PNO truncation parameters                   .... 
    PAOOverlapThresh   =        1.000e-08

    TCutPairs          =        1.000e-05
    TCutPNO            =        1.000e-07
    TCutPNOSingles     =        3.000e-09
    TCutMP2Pairs       =        1.000e-06
    TCutMKN            =        1.000e-02
    TCutDO             =        1.000e-02

Pair selection                          .... not used
Type of local MP2 treatment                 .... semi-local MP2
Strategy for PNO selection                  .... occupation number selection
Pair density normalization                  .... MP2 norm
Spin component scaling                      .... not used

   .... Finished loop over pairs
Making pair pair interaction lists          ... done

                       ===========================
                         10 OF   10 PAIRS ARE KEPT CCSD PAIRS
                          0 OF   10 PAIRS ARE KEPT MP2 PAIRS FOR (T)
                          0 OF   10 PAIRS ARE SKIPPED
                       ===========================

Total time spent in the initial guess                 ...     0.012 sec
SL-MP2 correlation energy (all non-screened pairs)    ...      -0.201114202996 Eh

Initial PNO correlation energy                        ...      -0.201110568899 Eh
sum of pair energies prescreened and skipped MP2 pairs...       0.000000000000 Eh
sum of pair energies of crude MP2 skipped pairs only  ...       0.000000000000 Eh
sum of MP2 pair energies for pairs that were not kept ...       0.000000000000 Eh
sum of PNO error estimates for the kept pairs         ...      -0.000003634097 Eh
                                                          --------------------
sum of all corrections                                         -0.000003634097
Initial total correlation energy                               -0.201114202996
Thresholds for map construction and integral transformation for fine MP2 and CCSD(T) calculation:
   TCutMKN   ...     1.0e-03
   TCutDO    ...     5.0e-03
   TCutPairs ...     1.0e-05
   TCutCMO   ...     1.0e-03
   TCutCPAO  ...     1.0e-03

Thresholds for map construction and integral transformation for strong Triples:
   TCutMKN   ...     1.0e-02
   TCutDO    ...     1.0e-02
   TCutCMO   ...     1.0e-03
   TCutCPAO  ...     1.0e-03

Thresholds for map construction and integral transformation for weak Triples:
   TCutMKN   ...     1.0e-01
   TCutDO    ...     2.0e-02
   TCutCMO   ...     1.0e-03
   TCutCPAO  ...     1.0e-03

--------------------------------
LOCAL RI TRANSFORMATION (IAVPAO)
--------------------------------

Orbital window:       1 to 4
Number of PAOs:      28
Basis functions:     28 (14 shells)
Aux. functions:     169 (67 shells)
Use SHARK:           on

Processing maps (0.0 sec)
Average map sizes:
   Aux shells -> MOs               4.0
   Aux shells -> PAOs             28.0
   MOs        -> AO shells        14.0
   PAOs       -> AO shells        14.0

Calculating integrals (0.2 sec, 0.146 MB)
Sorting integrals (0.0 sec, 0.144 MB)
Total time for the integral transformation: 0.2 sec
--------------------------------
INITIAL GUESS AND PNO GENERATION
--------------------------------

PNO truncation parameters                   .... 
    ScaleTCutPNO       =        1.000e-02
    PAOOverlapThresh   =        1.000e-08

    TCutPairs          =        1.000e-05
    TCutPNO            =        1.000e-07
    TCutPNOSingles     =        3.000e-09
    TCutMP2Pairs       =        1.000e-06
    TCutMKN            =        1.000e-03
    TCutDO             =        5.000e-03

Pair selection                          .... not used
Type of local MP2 treatment                 .... full local PMP2
Strategy for PNO selection                  .... occupation number selection
Pair density normalization                  .... MP2 norm
Spin component scaling                      .... not used

PASS-1: Formation of initial guess LMP2 amplitudes
Initial amplitudes guess done. Entering LMP2 iteration loop:
   Max. no of iterations          ...  50
   Energy convergence tolerance   ...    1.0e-07
   Residual convergence tolerance ...    5.0e-07
   Fock matrix cutoff             ...    1.0e-05 Eh
   DIIS convergence acceleration parameters:
        Max # vectors in DIIS     ... 7
        Start iteration of DIIS   ... 0
        Levelshift                ... 2.000e-01
        Damping factor 1          ... 5.000e-01
        Damping factor 2          ... 1.000e+00
   L-MP2 PNO cut-off              ...   1.0e-09
   L-MP2 PNO cut-off (core)       ...   1.0e-11
                           *** Turning on DIIS ***
LMP2-Iter=   0:  ELMP2= -0.205534504353  DE=   4.4e-03 RMAX=   7.9e-03
LMP2-Iter=   1:  ELMP2= -0.207864298284  DE=   2.3e-03 RMAX=   2.0e-03
LMP2-Iter=   2:  ELMP2= -0.208198774594  DE=   3.3e-04 RMAX=   4.4e-04
LMP2-Iter=   3:  ELMP2= -0.208239933331  DE=   4.1e-05 RMAX=   1.2e-04
LMP2-Iter=   4:  ELMP2= -0.208243920023  DE=   4.0e-06 RMAX=   1.7e-05
LMP2-Iter=   5:  ELMP2= -0.208243917372  DE=   2.7e-09 RMAX=   5.1e-06
LMP2-Iter=   6:  ELMP2= -0.208243916037  DE=   1.3e-09 RMAX=   6.0e-07
LMP2-Iter=   7:  ELMP2= -0.208243914753  DE=   1.3e-09 RMAX=   2.0e-07
LMP2-Iter=   8:  ELMP2= -0.208243916301  DE=   1.5e-09 RMAX=   1.9e-08 => CONVERGED
PASS-2: Formation of Pair natural orbitals
   .... Finished loop over pairs

 PNO Occupation Number Statistics: 
  | Av. % of trace(Dij) retained        ...  99.999538808415
  | sigma^2 in % of trace(Dij) retained ...   1.87e-07
  | Av. % of trace(Di) retained         ... 100.000000000000
  | sigma^2 in % of trace(Di) retained  ...   9.09e-28
 Distributions of % trace(Dij) recovered:
  |       >= 99.9  ...    10 (100.0 % of all pairs)
 Distributions of % trace(Di) recovered :
  |       >= 99.9  ...     4 (100.0 % of all I-pairs )

Making pair pair interaction lists          ... done

                       ===========================
                         10 OF   10 PAIRS ARE KEPT
                       ===========================

Total time spent in the initial guess                 ...     1.014 sec
L-MP2 correlation energy (all non-screened pairs)     ...      -0.208243916301 Eh
L-MP2 PNO error correction                            ...       0.000000000000 Eh
                                                          --------------------
Initial total L-MP2 energy (non-screened pairs)       ...      -0.208243916301 Eh

Initial PNO correlation energy                        ...      -0.208242729484 Eh
sum of pair energies estimated for screened out pairs ...       0.000000000000 Eh
sum of MP2 pair energies for pairs that were not kept ...       0.000000000000 Eh
sum of PNO error estimates for the kept pairs         ...      -0.000001186817 Eh
                                                          --------------------
sum of all corrections                                         -0.000001186817
Initial total correlation energy                               -0.208243916301
Thresholds for map construction and integral transformation for fine MP2 and CCSD(T) calculation:
   TCutMKN   ...     1.0e-03
   TCutDO    ...     5.0e-03
   TCutPairs ...     1.0e-05
   TCutCMO   ...     1.0e-03
   TCutCPAO  ...     1.0e-03

Number of pairs in F12 (TCutDOF12 = 3.000e-04)        ...     10

Time for aux screen maps:            0.000
Time for maps after fine MP2:            0.000
-----------------------------
LOCAL RI TRANSFORMATION (IJV)
-----------------------------

Orbital window:       1 to 4
Basis functions:     28 (14 shells)
Aux. functions:     169 (67 shells)
Use SHARK:           on

Processing maps (0.0 sec)
Average map sizes:
   Aux shells -> MOs(i)            4.0
   Aux shells -> MOs(j)            4.0
   MOs        -> AO shells        14.0

Calculating integrals (0.2 sec, 0.023 MB)
Sorting integrals (0.0 sec, 0.021 MB)
Total time for the integral transformation: 0.2 sec
--------------------------------
LOCAL RI TRANSFORMATION (VABPAO)
--------------------------------

Number of PAOs:      28
Basis functions:     28 (14 shells)
Aux. functions:     169 (67 shells)
Use SHARK:           on

Processing maps (0.0 sec)
Average map sizes:
   Aux shells -> PAOs             28.0
   PAOs       -> AO shells        14.0

Calculating integrals (0.2 sec, 1.013 MB)
Finished


-------------------------------------
Pair Pair Term precalculation with     
RI-(ij|mn) and (im|jn) transformation  
ON THE FLY                             
-------------------------------------

   IBatch   1 (of   1)              ... done (    0.088 sec)
Total EXT                           ...           0.088 sec

---------------------
RI-PNO TRANSFORMATION
---------------------

Total Number of PNOs                   ...   220
Average number of PNOs per pair        ...    22
Maximal number of PNOs per pair        ...    23
   #pairs with  1 -  5 PNOs   :    0
   #pairs with  6 - 10 PNOs   :    0
   #pairs with 11 - 15 PNOs   :    0
   #pairs with 16 - 20 PNOs   :    0
   #pairs with 21 - 25 PNOs   :   10
   #pairs with 26 - 30 PNOs   :    0
   #pairs with 31 - 35 PNOs   :    0
   #pairs with 36 - 40 PNOs   :    0
   #pairs with 41 - 45 PNOs   :    0
   #pairs with 46 - 50 PNOs   :    0

Generation of (ij|ab)[P] integrals            ... on
Generation of (ia|bc)[P],(ja|bc)[P] integrals ... on
Storage of 3 and 4 external integrals         ... on
Generation of ALL (ka|bc)[P] integrals        ... on
Keep RI integrals in memory                   ... off

Ibatch:  1 (of  1)
Starting 2-4 index PNO integral generation ... done

Timings:
Total PNO integral transformation time     ...          0.101 sec
Size of the 3-external file                ...         0 MB
Size of the 4-external file                ...         2 MB
Size of the IKJL file                      ...         0 MB
Size of the all 3-external file            ...         1 MB
Size of the 1-external file                ...         0 MB

Making pair/pair overlap matrices          ... done (    0.026 sec)
Size of the pair overlap file              ... 0 MB
Redoing the guess amplitudes               ... done (    0.003 sec)

-------------------------
FINAL STARTUP INFORMATION
-------------------------

E(0)                                       ...    -76.037295677
E(L-MP2)                                   ...     -0.208243916
E(L-MP2) including corrections             ...     -0.208243916
Initial E(tot)                             ...    -76.245539593
<T|T>                                      ...      0.049481217
Number of pairs included                   ... 10
Total number of pairs                      ... 10

------------------------------------------------
                  RHF COUPLED CLUSTER ITERATIONS
------------------------------------------------

Number of PNO amplitudes to be optimized   ...         4846
Number of non-PNO amplitudes               ...         5290
Untruncated number of regular amplitudes   ...         5290

Iter       E(tot)           E(Corr)          Delta-E          Residual     Time
  0    -76.238436347     -0.201139483      0.007104433      0.015102749    0.35
                           *** Turning on DIIS ***
  1    -76.246972573     -0.209675710     -0.008536227      0.006322334    1.67
  2    -76.252449668     -0.215152805     -0.005477095      0.002077349    2.93
  3    -76.253414076     -0.216117213     -0.000964408      0.001024197    0.87
  4    -76.253708438     -0.216411574     -0.000294362      0.000474742    0.39
  5    -76.253794306     -0.216497442     -0.000085868      0.000207703    0.50
  6    -76.253813966     -0.216517103     -0.000019660      0.000079367    0.42
  7    -76.253816464     -0.216519601     -0.000002498      0.000025291    0.34
  8    -76.253818044     -0.216521181     -0.000001580      0.000007001    0.41
               --- The Coupled-Cluster iterations have converged ---
Making OccT1 to AO map ... ok
3-index local transformation (OBS,OBS/AUX) for   op=0   ... done (      0.0 sec)
3-index local transformation (OBS,CABS/AUX) for  op=0   ... done (      0.1 sec)
3-index local transformation (OBS,OBS/AUX) for   op=1   ... done (      0.1 sec)
3-index local transformation (OBS,CABS/AUX) for  op=1   ... done (      0.1 sec)
3-index local transformation (OBS,OBS/AUX) for   op=2   ... done (      0.1 sec)
3-index local transformation (OBS,CABS/AUX) for  op=2   ... done (      0.1 sec)
3-index local transformation (OBS,OBS/AUX) for   op=3   ... done (      0.1 sec)
3-index local transformation (OBS,CABS/AUX) for  op=3   ... done (      0.1 sec)
3-index local transformation (OBS,OBS/AUX) for   op=4   ... done (      0.1 sec)
3-index local transformation (OBS,CABS/AUX) for  op=4   ... done (      0.1 sec)
3-index local transformation (OBS,OBS/AUX) of (pa|X)    ... done (      0.1 sec)
3-index local transformation (OBS_T1,OBS/AUX) for op=0  ... done (      0.1 sec)
3-index local transformation (OBS_T1,OBS/AUX) for op=1  ... done (      0.1 sec)
3-index local transformation (OBS_F,OBS/AUX) for op=2   ... done (      0.1 sec)
3-index local transformation (OBS_F,CABS/AUX)for op=2   ... done (      0.1 sec)
------------------------
RHF DLPNO F12 CORRECTION
------------------------

Doing SCF density matrices                              ... done (      0.0 sec)
Calculating RI Coulomb operators
Retrieving the Coulomb fitting basis                    ... done
       .... OBS/OBS done        (      0.1 sec)
       .... CABS/OBS done       (      0.1 sec)
       .... CABS/CABS done      (      0.1 sec)

F12 OBS GRIDX
-------------

General Integration Accuracy     IntAcc      ... 4.338
Radial Grid Type                 RadialGrid  ... OptM3 with GC (2021)
Angular Grid (max. ang.)         AngularGrid ... 3 (Lebedev-194)
Angular grid pruning method      GridPruning ... 5 (extended)
Weight generation scheme         WeightScheme... Becke
Basis function cutoff            BFCut       ... 1.0000e-10
Integration weight cutoff        WCut        ... 1.0000e-14
Angular grids for H and He will be reduced by one unit
Partially contracted basis set               ... on
Rotationally invariant grid construction     ... off

Total number of grid points                  ...    22484
Total number of batches                      ...      354
Average number of points per batch           ...       63
Average number of grid points per atom       ...     7495

F12 CABS GRIDX
--------------

General Integration Accuracy     IntAcc      ... 4.338
Radial Grid Type                 RadialGrid  ... OptM3 with GC (2021)
Angular Grid (max. ang.)         AngularGrid ... 3 (Lebedev-194)
Angular grid pruning method      GridPruning ... 5 (extended)
Weight generation scheme         WeightScheme... Becke
Basis function cutoff            BFCut       ... 1.0000e-10
Integration weight cutoff        WCut        ... 1.0000e-14
Angular grids for H and He will be reduced by one unit
Partially contracted basis set               ... on
Rotationally invariant grid construction     ... off

Total number of grid points                  ...    22484
Total number of batches                      ...      354
Average number of points per batch           ...       63
Average number of grid points per atom       ...     7495

Calculating COSX Exchange operators
       .... OBS/OBS done        (      0.1 sec)
       .... CABS/OBS done       (      0.2 sec)
       .... CABS/CABS done      (      0.6 sec)
Completing Fock operators                               ... done (      0.0 sec)
Calculating F12 intermediates (incore)                  ... 

WARNING (ORCA_TOOLS): CalcCholeskyLLoc() returned with error 1
                      Potentially linear dependencies in the aux basis!



WARNING (ORCA_TOOLS): CalcCholeskyLLoc() returned with error 1
                      Potentially linear dependencies in the aux basis!


Total T*B*T Contribution              =   0.079368383987

Total V*T MP2 Contribution            =  -0.161822853369

Total V*T CCSD without S Contribution =  -0.143280309577

Total V*T CCSD with S Contribution    =  -0.142575083973

DeltaEC_MP2                           =  -0.082454469383

DeltaEC_CCSD without S                =  -0.063911925590

DeltaEC_CCSD with S                   =  -0.063206699986
Total time of computation of intermediates                       (      0.2 sec)
Calculating correlation correction                      ... done (      0.0 sec)

F12 correction                   :  -0.063206699986
HF basis set correction          :  -0.024252380727
Sum of the two                   :  -0.087459080713

Total time for F12 correction    :     1.777 sec
  .... cleaning up and leaving F12-CCSD

----------------------
COUPLED CLUSTER ENERGY
----------------------

Uncorrected 0th order energy               ...    -76.037295677
F12-HF basis set correction                ...     -0.024252381
Corrected 0th order energy                 ...    -76.061548058

E(CORR)(strong-pairs)                      ...     -0.216521181
E(CORR)(weak-pairs)                        ...     -0.000001187
E(CORR)(corrected)                         ...     -0.216522367
Uncorrected correlation energy             ...     -0.216521181
F12-correction to the correlation energy   ...     -0.063206700
Final F12 correlation energy               ...     -0.279729067

E(TOT)-before F12 corrections              ...    -76.253818044
E(TOT)-after HF correction                 ...    -76.278070425
E(TOT)-after all F12 corrections           ...    -76.341277125

Singles Norm <S|S>**1/2                    ...      0.031698170  
T1 diagnostic                              ...      0.011206996  

------------------
LARGEST AMPLITUDES
------------------
   4-> 10   4-> 10       0.031070
   3-> 10   3-> 10       0.031070
   3->  8   3->  8       0.026208
   4->  8   4->  8       0.026208
   2-> 15   2-> 15       0.024451
   1-> 15   1-> 15       0.024451
   3-> 10   3->  8       0.021474
   3->  8   3-> 10       0.021474
   4-> 10   4->  8       0.021474
   4->  8   4-> 10       0.021474
   3-> 12   3-> 12       0.019036
   4-> 12   4-> 12       0.019036
   4->  5   4->  8       0.018070
   4->  8   4->  5       0.018070
   3->  8   3->  5       0.018070
   3->  5   3->  8       0.018070


-------------------------------------------
DLPNO BASED TRIPLES CORRECTION
-------------------------------------------

Singles multiplier          ...  1.000000
TCutTNO                     ... 1.000e-09
TCutMP2Pairs                ... 1.000e-06
TCutDOStrong                ... 1.000e-02
TCutMKNStrong               ... 1.000e-02
TCutDOWeak                  ... 2.000e-02
TCutMKNWeak                 ... 1.000e-01

Parameters used in iterative triples
TCutFock                    ... 1.000e-03
TCutWeak                    ... 1.000e-08
TCutWeakGuess               ... 6.000e-06
TCutIter                    ... 1.000e-03
TNOScaleS                   ... 1.000e+01
TNOScaleW                   ... 1.000e+02
ETol                        ... 1.000e-04

Fragment selection                          .... not used
Number of Triples that are to be computed   ...        16

 . . . . . . . . .
10% done  
20% done  
30% done  
40% done  
50% done  
60% done  
70% done  
80% done  
90% done               (      0.108 sec)

-------------------
Triples Iterations:
-------------------

The T1 Strong/Weak pair is = 13/3 

Iter        E(Triple)      Delta-E            Time
  0     0.000000000000    0.003576812560      0.11
  1    -0.003713493563    0.000136681002      0.04
  2    -0.003714806502    0.000001312939      0.04

------------------
TRIPLES CORRECTION
------------------

The Conventional (T0) is    -0.003576812560
The Truncated    (T0) is    -0.003576812560
The corrected     (T) is    -0.003714806502

Triples timings:
Total time for T0               ...     0.306 sec
Total time for Iterative (T)    ...     0.190 sec
Total time of overall (T)       ...     0.594 sec

Triples List generation         ...     0.000 sec
TNO generation                  ...     0.006 sec
Pair density generation         ...     0.000 sec
Look up tables                  ...     0.000 sec
Generating 3-index integrals    ...     0.057 sec
  Make 4-ind.int. from 3-ind.int...     0.005 sec
  Projecting amplitudes (D + S) ...     0.001 sec
  Downprojecting integrals      ...     0.000 sec
  Energy contr. (sum over a,b,c)...     0.041 sec
Fitting ET(->0)                 ...     0.000 sec

Everything after 3-index        ...     0.051 sec

Timing details:
 TNO integrals                  ...     0.061 sec
   Reading 3-index integrals    ...     0.050 sec
   Sorting integrals            ...     0.002 sec
       Sorting integrals 1      ...     0.000 sec
       Sorting integrals 2      ...     0.001 sec
       Sorting integrals 3      ...     0.000 sec
       Sorting integrals 4      ...     0.000 sec
       Sorting integrals 5      ...     0.000 sec
       Sorting integrals 6      ...     0.000 sec
   Calculating local VM**-1/2   ...     0.001 sec
   Orthogonal. integrals        ...     0.002 sec
   Multipl. 3-index integrals   ...     0.007 sec
   All concerning IRIab (w/TNO) ...     0.001 sec

 Calculate W0/W1                ...     0.004 sec
 W 3-ext contribution           ...     0.002 sec
 W 3-int contribution           ...     0.001 sec
 Sorting W                      ...     0.001 sec

 V exchange contribution        ...     0.005 sec

 Timings for Triples without generation
     of 3-index integrals       ...     0.051 sec
       0 weak pairs             ...     0.051 sec
       1 weak pair              ...     0.000 sec
       2 weak pairs             ...     0.000 sec
       3 weak pairs             ...     0.000 sec
  Extra time for extrapolation  ...     0.000 sec

Number of Triples   (0, 1, 2, 3 weak pairs; overall):     16       0       0       0  (    16)
Number of Atoms     (0, 1, 2, 3 weak pairs; overall):    3.0     0.0     0.0     0.0  (     3)
Number of PAOs      (0, 1, 2, 3 weak pairs; overall):   28.0     0.0     0.0     0.0  (    28)
Number of AuxFcns   (0, 1, 2, 3 weak pairs; overall):  151.5     0.0     0.0     0.0  (   169)
Number of TNOs      (0, 1, 2, 3 weak pairs         ):   23.0     0.0     0.0     0.0
Aver. Number of NTNO, Atoms, PAOs, AuxFcns / Triples:     16    23.0     3.0    28.0   151.5

Triples Correction (T)                     ...     -0.003714807
Final correlation energy (without F12)     ...     -0.220237174
Final correlation energy (with F12)        ...     -0.283443874
F12-E(CCSD)                                ...    -76.341277125
F12-E(CCSD(T))                             ...    -76.344991932



------------------------------------------------------------------------------- 
                                     TIMINGS                                   
------------------------------------------------------------------------------- 


Total execution time                   ...       15.955 sec

Localization of occupied MO's          ...        0.548 sec (  3.4%)
Fock Matrix Formation                  ...        0.232 sec (  1.5%)
Global overlap, Fock, MKN matrices     ...        0.245 sec (  1.5%)
Differential overlap integrals         ...        0.306 sec (  1.9%)
Organizing maps                        ...        0.001 sec (  0.0%)
RI 3-index integral generations        ...        0.710 sec (  4.5%)
RI-PNO integral transformation         ...        0.283 sec (  1.8%)
Initial Guess                          ...        1.032 sec (  6.5%)
DIIS Solver                            ...        2.065 sec ( 12.9%)
State Vector Update                    ...        0.000 sec (  0.0%)
Sigma-vector construction              ...        6.093 sec ( 38.2%)
  <D|H|D>(0-ext)                       ...        0.236 sec (  3.9% of sigma)
  <D|H|D>(2-ext)                       ...        0.296 sec (  4.9% of sigma)
  <D|H|D>(4-ext)                       ...        0.017 sec (  0.3% of sigma)
  <D|H|D>(4-ext-corr)                  ...        0.039 sec (  0.6% of sigma)
  CCSD doubles correction              ...        0.055 sec (  0.9% of sigma)
  <S|H|S>                              ...        0.634 sec ( 10.4% of sigma)
  <S|H|D>(1-ext)                       ...        0.014 sec (  0.2% of sigma)
  <S|H|D>(3-ext)                       ...        0.013 sec (  0.2% of sigma)
  Fock-dressing                        ...        0.818 sec ( 13.4% of sigma)
  Singles amplitudes                   ...        0.190 sec (  3.1% of sigma)
  (ik|jl)-dressing                     ...        0.235 sec (  3.9% of sigma)
  (ij|ab),(ia|jb)-dressing             ...        2.925 sec ( 48.0% of sigma)
  Pair energies                        ...        0.004 sec (  0.1% of sigma)
Total Time for computing F12           ...        2.945 sec ( 18.5% of ALL)
Total Time for computing (T)           ...        0.594 sec (  3.7% of ALL)


Maximum memory used throughout the entire MDCI-calculation: 95.4 MB

-------------------------   --------------------
FINAL SINGLE POINT ENERGY       -76.344991931508
-------------------------   --------------------


                            ***************************************
                            *     ORCA property calculations      *
                            ***************************************


  WARNING: The energy has been calculated at the MDCI level but the densities
           used in the property calculations are still SCF densities
           MDCI response densities have not been calculated 
           use %mdci Density linearized end
           or  %mdci Density unrelaxed end
           or  %mdci Density orbopt end

                                    ---------------------
                                    Active property flags
                                    ---------------------
   (+) Dipole Moment


------------------------------------------------------------------------------
                       ORCA ELECTRIC PROPERTIES CALCULATION
------------------------------------------------------------------------------

Dipole Moment Calculation                       ... on
Quadrupole Moment Calculation                   ... off
Polarizability Calculation                      ... off
GBWName                                         ... h2o_lw1x_Compound_1.gbw
Electron density                                ... h2o_lw1x_Compound_1.scfp
The origin for moment calculation is the CENTER OF MASS  = ( 0.000000,  0.000000  0.097958)

-------------
DIPOLE MOMENT
-------------
                                X             Y             Z
Electronic contribution:      0.00000       0.00000       0.11520
Nuclear contribution   :      0.00000       0.00000      -0.97959
                        -----------------------------------------
Total Dipole Moment    :      0.00000       0.00000      -0.86439
                        -----------------------------------------
Magnitude (a.u.)       :      0.86439
Magnitude (Debye)      :      2.19710



--------------------
Rotational spectrum 
--------------------
 
Rotational constants in cm-1:    27.191958    14.467615     9.443274 
Rotational constants in MHz : 815194.382788 433728.186196 283102.243345 

 Dipole components along the rotational axes: 
x,y,z [a.u.] :     0.000000    -0.864387     0.000000 
x,y,z [Debye]:     0.000000    -2.197098     0.000000 

 

Timings for individual modules:

Sum of individual times         ...       19.955 sec (=   0.333 min)
GTO integral calculation        ...        0.576 sec (=   0.010 min)   2.9 %
SCF iterations                  ...        2.883 sec (=   0.048 min)  14.4 %
MDCI module                     ...       16.495 sec (=   0.275 min)  82.7 %


################################################################################


                                COMPOUND JOB  2 
Basename: h2o_lw1x_Compound_2
NOTE: please remember that MaxCore and PAL settings will be ignored.

################################################################################

================================================================================
                                       INPUT FILE
================================================================================
NAME = h2o_lw1x_Compound_2.inp
|  1>     ! DefGrid3 RIJCOSX TightPNO DLPNO-CCSD(T1)-F12 MiniPrint NoPop
|  2>     %Basis
|  3>       Basis "maug-cc-pV(T+d)Z"
|  4>       AuxJ  "AutoAux"
|  5>       AuxC  "AutoAux"
|  6>       CABS  "AutoAux"
|  7>     End
|  8> 
|  9>                          ****END OF INPUT****
================================================================================
Warning! AutoAux has not been tested for CABS - use at your own risk!
================================================================================

----- Orbital basis set information -----
Your calculation utilizes the basis: may-cc-pV(T+d)Z 
  E. Papajak, D. G. Truhlar, J. Chem. Theory Comput. 7, 10-18 (2011).

----- AuxJ basis set information -----
Your calculation utilizes the AutoAux generation procedure.
  G. L. Stoychev, A. A. Auer, F. Neese, J. Chem. Theory Comput. 13, 554 (2017)

----- AuxC basis set information -----
Your calculation utilizes the AutoAux generation procedure.
  G. L. Stoychev, A. A. Auer, F. Neese, J. Chem. Theory Comput. 13, 554 (2017)

----- CABS information -----
Your calculation utilizes the AutoAux generation procedure.
  G. L. Stoychev, A. A. Auer, F. Neese, J. Chem. Theory Comput. 13, 554 (2017)


                    <<< The CABS basis set will be decontracted >>>

================================================================================
                                        WARNINGS
                       Please study these warnings very carefully!
================================================================================


WARNING: Post HF methods need fully converged wavefunctions
  ===> : Setting SCFConvForced true
         You can overwrite this default with %scf ConvForced false 


WARNING: MDCI localization with Augmented Hessian Foster-Boys
  ===> : Switching off randomization!

INFO   : the flag for use of the SHARK integral package has been found!


                       ****************************
                       * Single Point Calculation *
                       ****************************

---------------------------------
CARTESIAN COORDINATES (ANGSTROEM)
---------------------------------
  O      0.000000    0.000000    0.117688
  H      0.000000    0.760247   -0.470754
  H      0.000000   -0.760247   -0.470754

----------------------------
CARTESIAN COORDINATES (A.U.)
----------------------------
  NO LB      ZA    FRAG     MASS         X           Y           Z
   0 O     8.0000    0    15.999    0.000000    0.000000    0.222398
   1 H     1.0000    0     1.008    0.000000    1.436659   -0.889596
   2 H     1.0000    0     1.008    0.000000   -1.436659   -0.889596



           ************************************************************
           *        Program running with 5 parallel MPI-processes     *
           *              working on a common directory               *
           ************************************************************
------------------------------------------------------------------------------
                   ___                                                        
                  /   \      - P O W E R E D   B Y -                         
                 /     \                                                     
                 |  |  |   _    _      __       _____    __    __             
                 |  |  |  | |  | |    /  \     |  _  \  |  |  /  |          
                  \  \/   | |  | |   /    \    | | | |  |  | /  /          
                 / \  \   | |__| |  /  /\  \   | |_| |  |  |/  /          
                |  |  |   |  __  | /  /__\  \  |    /   |      \           
                |  |  |   | |  | | |   __   |  |    \   |  |\   \          
                \     /   | |  | | |  |  |  |  | |\  \  |  | \   \       
                 \___/    |_|  |_| |__|  |__|  |_| \__\ |__|  \__/        
                                                                              
                      - O R C A' S   B I G   F R I E N D -                    
                                      &                                       
                       - I N T E G R A L  F E E D E R -                       
                                                                              
 v1 FN, 2020, v2 2021                                                         
------------------------------------------------------------------------------


Reading SHARK input file h2o_lw1x_Compound_2.SHARKINP.tmp ... ok
----------------------
SHARK INTEGRAL PACKAGE
----------------------

Number of atoms                             ...      3
Number of basis functions                   ...     62
Number of shells                            ...     24
Maximum angular momentum                    ...      3
Integral batch strategy                     ... SHARK/LIBINT Hybrid
RI-J (if used) integral strategy            ... SPLIT-RIJ (Revised 2003 algorithm where possible)
Printlevel                                  ...      1
Contraction scheme used                     ... SEGMENTED contraction
Coulomb Range Separation                    ... NOT USED
Exchange Range Separation                   ... NOT USED
Finite Nucleus Model                        ... NOT USED
Auxiliary Coulomb fitting basis             ... AVAILABLE
   # of basis functions in Aux-J            ...    296
   # of shells in Aux-J                     ...     92
   Maximum angular momentum in Aux-J        ...      4
Auxiliary J/K fitting basis                 ... NOT available
Auxiliary Correlation fitting basis         ... AVAILABLE
   # of basis functions in Aux-C            ...    296
   # of shells in Aux-C                     ...     92
   Maximum angular momentum in Aux-C        ...      4
Auxiliary 'external' fitting basis          ... NOT available
Integral threshold                          ...     1.000000e-10
Primitive cut-off                           ...     1.000000e-11
Primitive pair pre-selection threshold      ...     1.000000e-11

Calculating pre-screening integrals         ... done (  0.0 sec) Dimension = 24
Organizing shell pair data                  ... done (  0.0 sec)
Shell pair information
Total number of shell pairs                 ...       300
Shell pairs after pre-screening             ...       300
Total number of primitive shell pairs       ...      1055
Primitive shell pairs kept                  ...      1026
          la=0 lb=0:     66 shell pairs
          la=1 lb=0:     88 shell pairs
          la=1 lb=1:     36 shell pairs
          la=2 lb=0:     44 shell pairs
          la=2 lb=1:     32 shell pairs
          la=2 lb=2:     10 shell pairs
          la=3 lb=0:     11 shell pairs
          la=3 lb=1:      8 shell pairs
          la=3 lb=2:      4 shell pairs
          la=3 lb=3:      1 shell pairs

Calculating one electron integrals          ... done (  0.0 sec)
Calculating RI/J V-Matrix + Cholesky decomp.... done (  0.0 sec)
Calculating RI/C V-Matrix + Cholesky decomp.... done (  0.0 sec)
Calculating Nuclear repulsion               ... done (  0.0 sec) ENN=      9.155047173065 Eh

SHARK setup successfully completed in   0.2 seconds

Maximum memory used throughout the entire GTOINT-calculation: 17.4 MB


           ************************************************************
           *        Program running with 5 parallel MPI-processes     *
           *              working on a common directory               *
           ************************************************************

Diagonalization of the overlap matrix:
Smallest eigenvalue                        ... 2.355e-03
Time for diagonalization                   ...    0.001 sec
Threshold for overlap eigenvalues          ... 1.000e-08
Number of eigenvalues below threshold      ... 0
Time for construction of square roots      ...    0.009 sec
Total time needed                          ...    0.011 sec

Atom 0: N(Shells)= 12 and 8 - projection required
--------------------
COSX GRID GENERATION
--------------------

GRIDX 1
-------
General Integration Accuracy     IntAcc      ... 4.020
Radial Grid Type                 RadialGrid  ... OptM3 with GC (2021)
Angular Grid (max. ang.)         AngularGrid ... 2 (Lebedev-110)
Angular grid pruning method      GridPruning ... 4 (adaptive)
Weight generation scheme         WeightScheme... Becke
Basis function cutoff            BFCut       ... 1.0000e-10
Integration weight cutoff        WCut        ... 1.0000e-14
Angular grids for H and He will be reduced by one unit
Partially contracted basis set               ... on
Rotationally invariant grid construction     ... off

Total number of grid points                  ...     3924
Total number of batches                      ...       63
Average number of points per batch           ...       62
Average number of grid points per atom       ...     1308
UseSFitting                                  ... on

GRIDX 2
-------
General Integration Accuracy     IntAcc      ... 4.338
Radial Grid Type                 RadialGrid  ... OptM3 with GC (2021)
Angular Grid (max. ang.)         AngularGrid ... 3 (Lebedev-194)
Angular grid pruning method      GridPruning ... 4 (adaptive)
Weight generation scheme         WeightScheme... Becke
Basis function cutoff            BFCut       ... 1.0000e-10
Integration weight cutoff        WCut        ... 1.0000e-14
Angular grids for H and He will be reduced by one unit
Partially contracted basis set               ... on
Rotationally invariant grid construction     ... off

Total number of grid points                  ...     8530
Total number of batches                      ...      134
Average number of points per batch           ...       63
Average number of grid points per atom       ...     2843
UseSFitting                                  ... on

GRIDX 3
-------
General Integration Accuracy     IntAcc      ... 4.871
Radial Grid Type                 RadialGrid  ... OptM3 with GC (2021)
Angular Grid (max. ang.)         AngularGrid ... 4 (Lebedev-302)
Angular grid pruning method      GridPruning ... 4 (adaptive)
Weight generation scheme         WeightScheme... Becke
Basis function cutoff            BFCut       ... 1.0000e-10
Integration weight cutoff        WCut        ... 1.0000e-14
Angular grids for H and He will be reduced by one unit
Partially contracted basis set               ... on
Rotationally invariant grid construction     ... off

Total number of grid points                  ...    16922
Total number of batches                      ...      266
Average number of points per batch           ...       63
Average number of grid points per atom       ...     5641
UseSFitting                                  ... on

Time for X-Grid setup             =    0.601 sec

 re-compute Schwartz prescreening matrix in partically contracted basis (1) ...done (   0.079 sec)
--------------
SCF ITERATIONS
--------------
ITER       Energy         Delta-E        Max-DP      RMS-DP      [F,P]     Damp
               ***  Starting incremental Fock matrix formation  ***
  0    -76.0524269802   0.000000000000 0.01451555  0.00083586  0.0454701 0.7000
                      *** Initiating the SOSCF procedure ***
                      *** Re-Reading the Fockian *** 
                      *** Removing any level shift *** 
ITER      Energy       Delta-E        Grad      Rot      Max-DP    RMS-DP
  1    -76.05446413  -0.0020371500  0.001623  0.001623  0.038543  0.002148
               *** Restarting incremental Fock matrix formation ***
  2    -76.05975600  -0.0052918714  0.003191  0.001944  0.009645  0.000383
  3    -76.05983201  -0.0000760072  0.000931  0.000921  0.001917  0.000097
  4    -76.05983672  -0.0000047126  0.000333  0.000198  0.000205  0.000015
                 **** Energy Check signals convergence ****
              ***Rediagonalizing the Fockian in SOSCF/NRSCF***

               *****************************************************
               *                     SUCCESS                       *
               *           SCF CONVERGED AFTER   5 CYCLES          *
               *****************************************************

Old exchange energy                            =     -8.940152561 Eh
New exchange energy                            =     -8.940199651 Eh
Exchange energy change after final integration =     -0.000047089 Eh
Total energy after final integration           =    -76.059884488 Eh
Final COS-X integration done in                =     0.168 sec
Total Energy       :          -76.05988449 Eh           -2069.69468 eV
  Last Energy change         ...   -6.7718e-07  Tolerance :   1.0000e-06
  Last MAX-Density change    ...    3.0531e-16  Tolerance :   1.0000e-05
             **** THE GBW FILE WAS UPDATED (h2o_lw1x_Compound_2.gbw) ****
             **** DENSITY h2o_lw1x_Compound_2.scfp WAS UPDATED ****
[...]
Angular Grid (max. ang.)         AngularGrid ... 4 (Lebedev-302)
Angular grid pruning method      GridPruning ... 4 (adaptive)
Weight generation scheme         WeightScheme... Becke
Basis function cutoff            BFCut       ... 1.0000e-10
Integration weight cutoff        WCut        ... 1.0000e-14
Angular grids for H and He will be reduced by one unit
Partially contracted basis set               ... on
Rotationally invariant grid construction     ... off

Total number of grid points                  ...    15748
Total number of batches                      ...      247
Average number of points per batch           ...       63
Average number of grid points per atom       ...     5249
UseSFitting                                  ... on

Time for X-Grid setup             =    0.843 sec

 re-compute Schwartz prescreening matrix in partically contracted basis (1) ...done (   0.084 sec)
--------------
SCF ITERATIONS
--------------
ITER       Energy         Delta-E        Max-DP      RMS-DP      [F,P]     Damp
               ***  Starting incremental Fock matrix formation  ***
  0    -76.1049435590   0.000000000000 0.01198876  0.00018613  0.0751621 0.7000
                      *** Initiating the SOSCF procedure ***
                      *** Re-Reading the Fockian *** 
                      *** Removing any level shift *** 
ITER      Energy       Delta-E        Grad      Rot      Max-DP    RMS-DP
  1    -76.10515815  -0.0002145942  0.001317  0.001317  0.028249  0.000439
               *** Restarting incremental Fock matrix formation ***
  2    -76.10566507  -0.0005069194  0.002203  0.000318  0.000451  0.000016
  3    -76.10566578  -0.0000007104  0.000233  0.000106  0.000175  0.000006
                 **** Energy Check signals convergence ****
              ***Rediagonalizing the Fockian in SOSCF/NRSCF***

               *****************************************************
               *                     SUCCESS                       *
               *           SCF CONVERGED AFTER   4 CYCLES          *
               *****************************************************

Old exchange energy                            =     -8.965491195 Eh
New exchange energy                            =     -8.965510608 Eh
Exchange energy change after final integration =     -0.000019414 Eh
Total energy after final integration           =    -76.105685459 Eh
Final COS-X integration done in                =     0.189 sec
Total Energy       :          -76.10568546 Eh           -2070.94099 eV
  Last Energy change         ...   -2.6210e-07  Tolerance :   1.0000e-06
  Last MAX-Density change    ...    1.3323e-15  Tolerance :   1.0000e-05
             **** THE GBW FILE WAS UPDATED (h2o_lw1x_Compound_4.gbw) ****
             **** DENSITY h2o_lw1x_Compound_4.scfp WAS UPDATED ****
             **** ENERGY FILE WAS UPDATED (h2o_lw1x_Compound_4.en.tmp) ****
             **** THE GBW FILE WAS UPDATED (h2o_lw1x_Compound_4.gbw) ****
             **** DENSITY h2o_lw1x_Compound_4.scfp WAS UPDATED ****
----------------
ORBITAL ENERGIES
----------------

  NO   OCC          E(Eh)            E(eV) 
   0   2.0000     -20.568275      -559.6912 
   1   2.0000      -1.345054       -36.6008 
   2   2.0000      -0.707368       -19.2485 
   3   2.0000      -0.577044       -15.7022 
   4   2.0000      -0.504071       -13.7165 
   5   0.0000       0.140078         3.8117 
   6   0.0000       0.203706         5.5431 
   7   0.0000       0.542180        14.7535 
   8   0.0000       0.598748        16.2928 
   9   0.0000       0.666075        18.1248 
  10   0.0000       0.782199        21.2847 
  11   0.0000       0.799214        21.7477 
  12   0.0000       0.804440        21.8899 
  13   0.0000       0.860244        23.4084 
  14   0.0000       0.954756        25.9802 
  15   0.0000       1.052424        28.6379 
  16   0.0000       1.194382        32.5008 
  17   0.0000       1.477030        40.1920 
  18   0.0000       1.516945        41.2782 
  19   0.0000       2.030034        55.2400 
  20   0.0000       2.032660        55.3115 
  21   0.0000       2.059106        56.0311 
  22   0.0000       2.120135        57.6918 
  23   0.0000       2.213178        60.2236 
  24   0.0000       2.529064        68.8193 
  25   0.0000       2.937509        79.9337 
  26   0.0000       3.354372        91.2771 
  27   0.0000       3.486672        94.8772 
  28   0.0000       3.578595        97.3785 
  29   0.0000       3.648492        99.2805 
  30   0.0000       3.699103       100.6577 
  31   0.0000       3.871872       105.3590 
  32   0.0000       3.872382       105.3729 
  33   0.0000       3.958140       107.7065 
  34   0.0000       3.998146       108.7951 
  35   0.0000       4.019571       109.3781 
  36   0.0000       4.045025       110.0707 
  37   0.0000       4.219134       114.8085 
  38   0.0000       4.306174       117.1770 
  39   0.0000       4.543849       123.6444 
  40   0.0000       4.576345       124.5287 
  41   0.0000       4.853524       132.0711 
  42   0.0000       4.954808       134.8272 
  43   0.0000       5.122588       139.3927 
  44   0.0000       5.381848       146.4475 
  45   0.0000       5.539456       150.7363 
  46   0.0000       6.042244       164.4178 
  47   0.0000       6.643760       180.7859 
  48   0.0000       6.900498       187.7721 
  49   0.0000       6.934077       188.6858 
  50   0.0000       6.989800       190.2021 
  51   0.0000       6.992978       190.2886 
  52   0.0000       7.096620       193.1089 
  53   0.0000       7.226062       196.6311 
  54   0.0000       7.430012       202.1809 
  55   0.0000       7.762152       211.2189 
  56   0.0000       8.224375       223.7966 
  57   0.0000       8.447628       229.8716 
  58   0.0000      18.970936       516.2254 
  59   0.0000      19.407349       528.1008 
  60   0.0000      19.789356       538.4957 
  61   0.0000      22.336693       607.8123 
  62   0.0000      30.071423       818.2850 
  63   0.0000      30.077386       818.4473 
  64   0.0000      30.137041       820.0706 
  65   0.0000      30.322610       825.1202 
  66   0.0000      30.597453       832.5990 
  67   0.0000      89.904265      2446.4194 
  68   0.0000      90.260252      2456.1063 
  69   0.0000      90.512734      2462.9767 
  70   0.0000     105.972635      2883.6620 
Total SCF time: 0 days 0 hours 0 min 2 sec 

Maximum memory used throughout the entire SCF-calculation: 58.7 MB


           ************************************************************
           *        Program running with 5 parallel MPI-processes     *
           *              working on a common directory               *
           ************************************************************

------------------------------------------------------------------------------
                                ORCA  MP2 
------------------------------------------------------------------------------

Freezing NCore=0 chemical core electrons
Initializing SHARK ... done


------------------------------------------------------------------------------
                           ORCA ORBITAL LOCALIZATION
------------------------------------------------------------------------------

Input orbitals are from                  ... h2o_lw1x_Compound_4.gbw
Output orbitals are to                   ... h2o_lw1x_Compound_4.loc
Max. number of iterations                ... 128
Localizations seeded randomly            ... off
Convergence tolerance                    ... 1.000e-06
Treshold for strong local MOs            ... 9.500e-01
Treshold for bond MOs                    ... 8.500e-01
Operator                                 ... 0
Orbital range for localization           ... 0 to 4
Localization criterion                   ... FOSTER-BOYS (AUGMENTED HESSIAN)
Doing the dipole integrals     ... o.k.
Initial value of the localization sum :     0.288533
ITERATION   0 : L=    2.4284117449 DL=  2.14e+00 (AVERGE_DL)=    0.4625881812 
ITERATION   1 : L=    2.4977664903 DL=  6.94e-02 (AVERGE_DL)=    0.0832794965 
ITERATION   2 : L=    2.5119466800 DL=  1.42e-02 (AVERGE_DL)=    0.0376565927 
ITERATION   3 : L=    2.5139333940 DL=  1.99e-03 (AVERGE_DL)=    0.0140950841 
ITERATION   4 : L=    2.5140981875 DL=  1.65e-04 (AVERGE_DL)=    0.0040594769 
ITERATION   5 : L=    2.5141150394 DL=  1.69e-05 (AVERGE_DL)=    0.0012981491 
ITERATION   6 : L=    2.5141165955 DL=  1.56e-06 (AVERGE_DL)=    0.0003944808 
ITERATION   7 : L=    2.5141167397 DL=  1.44e-07 (AVERGE_DL)=    0.0001200709 
LOCALIZATION SUM CONVERGED

------------------------------------------------------
AUGMENTED HESSIAN OPTIMIZATION OF FOSTER-BOYS ORBITALS
------------------------------------------------------

Spin operator:           0
Orbital window:          0 to 4
Number of iterations:    128
Gradient tolerance:      1.000e-06
Number of pairs:         10
Davidson threshold:      2000
Diagonalization method:  LAPACK
Iter:    0   L: 2.5141167397   Grad. norm: 2.224583e-04
   *** Likely close to a maximum now. ***
       Augmented Hessian eigenvalues:  2.87e-08 -9.20e-01 -1.32e+00 -1.37e+00 ... 
Iter:    1   L: 2.5141167540   Grad. norm: 1.383388e-08
LOCALIZATION HAS CONVERGED.

Eigenvalues of the Hessian:
  0 -9.199e-01
  1 -1.318e+00
  2 -1.369e+00
  3 -3.266e+00
  4 -3.318e+00
  5 -4.719e+00
  6 -4.749e+00
  7 -5.394e+00
  8 -7.264e+00
  9 -9.679e+00


------------------------------------------------------------------------------- 
                    LOCALIZED MOLECULAR ORBITAL COMPOSITIONS                   
------------------------------------------------------------------------------- 

The Mulliken populations for each LMO on each atom are computed
The LMO`s will be ordered according to atom index and type
  (A) Strongly localized MO`s have populations of >=0.950 on one atom
  (B) Two center bond orbitals have populations of >=0.850 on two atoms
  (C) Other MO`s are considered to be `delocalized`

FOUND  -   3 strongly local MO`s
       -   2 two center bond MO`s
       -   0 significantly delocalized MO`s

Rather strongly localized orbitals:
MO   2:   0O  -   0.989089
MO   1:   0O  -   0.989089
MO   0:   0O  -   1.000454
Bond-like localized orbitals:
MO   4:   2H  -   0.380846  and   0O  -   0.627455
MO   3:   1H  -   0.380846  and   0O  -   0.627455
Localized MO's were stored in: h2o_lw1x_Compound_4.loc



Calculating differential overlap integrals ... ok
Threshold for domain construction in prescreening: TCutDOPre = 3.0e-02

--------------------------
ELECTRON PAIR PRESCREENING
--------------------------

Dipole-based pair screening          .... used

   TCutDOij = 1.000000e-05
   TCutPre  = 1.000000e-06
   .... Finished loop over pairs
Total time spent in the prescreening                  ...     0.006 sec
sum of pair energies estimated for screened out pairs ...       0.000000000000 Eh

---------------------------
MAP CONSTRUCTION THRESHOLDS
---------------------------
    TCutMKN     ...     1.0e-03
    TCutDO      ...     5.0e-03
    TCutC(MO)   ...     1.0e-03
    TCutC(PAO)  ...     1.0e-03

--------------------------------
LOCAL RI TRANSFORMATION (IAVPAO)
--------------------------------

Orbital window:       0 to 4
Number of PAOs:      71
Basis functions:     71 (27 shells)
Aux. functions:     329 (95 shells)
Use SHARK:           on

Processing maps (0.0 sec)
Average map sizes:
   Aux shells -> MOs               5.0
   Aux shells -> PAOs             71.0
   MOs        -> AO shells        27.0
   PAOs       -> AO shells        27.0

Calculating integrals (0.0 sec, 0.895 MB)
Sorting integrals (0.0 sec, 0.891 MB)
Total time for the integral transformation: 0.1 sec

----------------------------
Local MP2 Energy Calculation
----------------------------
Number of orbital pairs included:     15
Truncation parameters:
    PAOOverlapThresh    =        1.000e-08
    TCutPNO             =        1.000e-09

Spin component scaling                      .... not used
MP2 energy scaling factor                   .... 1.000

Formation of semicanonical amplitudes.
 10% done.
 20% done.
 30% done.
 40% done.
 50% done.
 60% done.
 70% done.
 80% done.
 90% done.
100% done.

Finished the LMP2 guess in 0.0 sec.

Average number of PAOs per pair         71.0
Average number of nrPAOs per pair       66.0
Average number of PNOs per pair         56.6
Average number of AUX  per pair        322.1

Semicanonical MP2 energy:                   -0.307270808673 Eh
Semicanonical MP2 energy in PNO basis:      -0.307269602678 Eh

Initial amplitudes guess done. Entering DLPNO-MP2 iteration loop:
   Max. no of iterations          ...  100
   Energy convergence tolerance   ...    1.0e-06 Eh
   Residual convergence tolerance ...    5.0e-06
   Fock matrix cutoff             ...    1.0e-05 Eh
   Max # vectors in DIIS          ...  7
   Start iteration of DIIS        ...  0
   Levelshift                     ...  2.000e-01 Eh
   Damping before turning on DIIS ...  5.000e-01
   Damping after turning on DIIS  ...  0.000e+00

                           *** Turning on DIIS ***
Iter=   0:  ECORR= -0.313063755575  DE=   5.8e-03 RMAX=   4.3e-02
Iter=   1:  ECORR= -0.317698764626  DE=   4.6e-03 RMAX=   1.0e-02
Iter=   2:  ECORR= -0.318327498440  DE=   6.3e-04 RMAX=   2.6e-03
Iter=   3:  ECORR= -0.318476893923  DE=   1.5e-04 RMAX=   5.1e-04
Iter=   4:  ECORR= -0.318486154579  DE=   9.3e-06 RMAX=   5.1e-05
Iter=   5:  ECORR= -0.318486118464  DE=   3.6e-08 RMAX=   1.8e-05
Iter=   6:  ECORR= -0.318485933534  DE=   1.8e-07 RMAX=   2.0e-06 => CONVERGED

Finished the DLPNO-MP2 iterations in 0.7 sec.

LMP2 correlation energy (all non-screened pairs)      ...     -0.318485933534 Eh
Semicanonical PNO correction to energy                ...     -0.000001205995 Eh
Sum of pair energies estimated for screened out pairs ...      0.000000000000 Eh
                                                         -----------------------
Total:                                                ...     -0.318487139529 Eh

------------------------------------------------------
 DLPNO-MP2 CORRELATION ENERGY:      -0.318487139529 Eh
------------------------------------------------------

TIMINGS FOR DLPNO-MP2:
Localization                             ...        0.222 sec
Differential overlap integrals           ...        0.299 sec
Prescreening                             ...        0.134 sec
Map setup                                ...        0.000 sec
(ia|v) trafo                             ...        0.066 sec
Semicanonical amplitudes                 ...        0.023 sec
PNO construction                         ...        0.006 sec
DLPNO-MP2 iterations                     ...        0.684 sec
                                             ----------------
Total time                                          1.893 sec


---------------------------------------
MP2 TOTAL ENERGY:      -76.424172598 Eh
---------------------------------------

Maximum memory used throughout the entire MP2-calculation: 105.9 MB

-------------------------   --------------------
FINAL SINGLE POINT ENERGY       -76.424172598177
-------------------------   --------------------


                            ***************************************
                            *     ORCA property calculations      *
                            ***************************************


  WARNING: The energy has been calculated at the MP2 level but the densities
           used in the property calculations are still SCF densities
           MP2 response densities have not been calculated 
           use %mp2 Density relaxed end
           or  %mp2 Density unrelaxed end

                                    ---------------------
                                    Active property flags
                                    ---------------------
   (+) Dipole Moment


------------------------------------------------------------------------------
                       ORCA ELECTRIC PROPERTIES CALCULATION
------------------------------------------------------------------------------

Dipole Moment Calculation                       ... on
Quadrupole Moment Calculation                   ... off
Polarizability Calculation                      ... off
GBWName                                         ... h2o_lw1x_Compound_4.gbw
Electron density                                ... h2o_lw1x_Compound_4.scfp
The origin for moment calculation is the CENTER OF MASS  = ( 0.000000,  0.000000  0.097958)

-------------
DIPOLE MOMENT
-------------
                                X             Y             Z
Electronic contribution:      0.00000       0.00000       0.18297
Nuclear contribution   :      0.00000       0.00000      -0.97959
                        -----------------------------------------
Total Dipole Moment    :      0.00000       0.00000      -0.79662
                        -----------------------------------------
Magnitude (a.u.)       :      0.79662
Magnitude (Debye)      :      2.02485



--------------------
Rotational spectrum 
--------------------
 
Rotational constants in cm-1:    27.191958    14.467615     9.443274 
Rotational constants in MHz : 815194.382788 433728.186196 283102.243345 

 Dipole components along the rotational axes: 
x,y,z [a.u.] :     0.000000    -0.796620     0.000000 
x,y,z [Debye]:     0.000000    -2.024846     0.000000 

 

Timings for individual modules:

Sum of individual times         ...        6.835 sec (=   0.114 min)
GTO integral calculation        ...        0.712 sec (=   0.012 min)  10.4 %
Relativistic integrals          ...        0.759 sec (=   0.013 min)  11.1 %
SCF iterations                  ...        2.873 sec (=   0.048 min)  42.0 %
MP2 module                      ...        2.490 sec (=   0.042 min)  36.4 %
================================================================================

----- Orbital basis set information -----
Your calculation utilizes the basis: def2-SVP
   F. Weigend and R. Ahlrichs, Phys. Chem. Chem. Phys. 7, 3297 (2005).



----------------------------------------------------------------------------------------------
                                        COMPOUND BLOCK                                        
                                     SUMMARY OF VARIABLES                                     
----------------------------------------------------------------------------------------------

Variable Name                                           Value             Evaluation String
-------------                                           -----             -----------------
HF_DZ                                    |             -76.06154806    |  
EC_DZ                                    |              -0.28344387    |  
CC_DZ                                    |              -0.27972907    |  EC_DZ-T_DZ
T_DZ                                     |              -0.00371481    |  
HF_TZ                                    |             -76.06534026    |  
EC_TZ                                    |              -0.29882691    |  
CC_TZ                                    |              -0.29082895    |  EC_TZ-T_TZ
T_TZ                                     |              -0.00799796    |  
HF_CBS                                   |             -76.06591538    |  HF_TZ-(HF_TZ-HF_DZ)*3^-5/(3^-5-2^-5)
CC_CBS                                   |              -0.29273113    |  CC_TZ-(CC_TZ-CC_DZ)*3^-4.7405/(3^-4.7405-2^-4.7405)
T_CBS                                    |              -0.01121441    |  T_TZ-(T_TZ-T_DZ)*3^-2.0879/(3^-2.0879-2^-2.0879)
MP_FC                                    |             -76.32376973    |  
MP_FU                                    |             -76.42417260    |  
MP_CV                                    |              -0.10040287    |  MP_FU-MP_FC
LW1X                                     |             -76.47026380    |  HF_CBS+CC_CBS+T_CBS+MP_CV
                             ****ORCA TERMINATED NORMALLY****
TOTAL RUN TIME: 0 days 0 hours 1 minutes 2 seconds 947 msec
