
                                 *****************
                                 * O   R   C   A *
                                 *****************

                                            #,                                       
                                            ###                                      
                                            ####                                     
                                            #####                                    
                                            ######                                   
                                           ########,                                 
                                     ,,################,,,,,                         
                               ,,#################################,,                 
                          ,,##########################################,,             
                       ,#########################################, ''#####,          
                    ,#############################################,,   '####,        
                  ,##################################################,,,,####,       
                ,###########''''           ''''###############################       
              ,#####''   ,,,,##########,,,,          '''####'''          '####       
            ,##' ,,,,###########################,,,                        '##       
           ' ,,###''''                  '''############,,,                           
         ,,##''                                '''############,,,,        ,,,,,,###''
      ,#''                                            '''#######################'''  
     '                                                          ''''####''''         
             ,#######,   #######,   ,#######,      ##                                
            ,#'     '#,  ##    ##  ,#'     '#,    #''#        ######   ,####,        
            ##       ##  ##   ,#'  ##            #'  '#       #        #'  '#        
            ##       ##  #######   ##           ,######,      #####,   #    #        
            '#,     ,#'  ##    ##  '#,     ,#' ,#      #,         ##   #,  ,#        
             '#######'   ##     ##  '#######'  #'      '#     #####' # '####'        



                  #######################################################
                  #                        -***-                        #
                  #          Department of theory and spectroscopy      #
                  #    Directorship and core code : Frank Neese         #
                  #        Max Planck Institute fuer Kohlenforschung    #
                  #                Kaiser Wilhelm Platz 1               #
                  #                 D-45470 Muelheim/Ruhr               #
                  #                      Germany                        #
                  #                                                     #
                  #                  All rights reserved                #
                  #                        -***-                        #
                  #######################################################


                         Program Version 5.0.1 -  RELEASE  -


 With contributions from (in alphabetic order):
   Daniel Aravena         : Magnetic Suceptibility
   Michael Atanasov       : Ab Initio Ligand Field Theory (pilot matlab implementation)
   Alexander A. Auer      : GIAO ZORA, VPT2 properties, NMR spectrum
   Ute Becker             : Parallelization
   Giovanni Bistoni       : ED, misc. LED, open-shell LED, HFLD
   Martin Brehm           : Molecular dynamics
   Dmytro Bykov           : SCF Hessian
   Vijay G. Chilkuri      : MRCI spin determinant printing, contributions to CSF-ICE
   Dipayan Datta          : RHF DLPNO-CCSD density
   Achintya Kumar Dutta   : EOM-CC, STEOM-CC
   Dmitry Ganyushin       : Spin-Orbit,Spin-Spin,Magnetic field MRCI
   Miquel Garcia          : C-PCM and meta-GGA Hessian, CC/C-PCM, Gaussian charge scheme
   Yang Guo               : DLPNO-NEVPT2, F12-NEVPT2, CIM, IAO-localization
   Andreas Hansen         : Spin unrestricted coupled pair/coupled cluster methods
   Benjamin Helmich-Paris : MC-RPA, TRAH-SCF, COSX integrals
   Lee Huntington         : MR-EOM, pCC
   Robert Izsak           : Overlap fitted RIJCOSX, COSX-SCS-MP3, EOM
   Marcus Kettner         : VPT2
   Christian Kollmar      : KDIIS, OOCD, Brueckner-CCSD(T), CCSD density, CASPT2, CASPT2-K
   Simone Kossmann        : Meta GGA functionals, TD-DFT gradient, OOMP2, MP2 Hessian
   Martin Krupicka        : Initial AUTO-CI
   Lucas Lang             : DCDCAS
   Marvin Lechner         : AUTO-CI (C++ implementation), FIC-MRCC
   Dagmar Lenk            : GEPOL surface, SMD
   Dimitrios Liakos       : Extrapolation schemes; Compound Job, initial MDCI parallelization
   Dimitrios Manganas     : Further ROCIS development; embedding schemes
   Dimitrios Pantazis     : SARC Basis sets
   Anastasios Papadopoulos: AUTO-CI, single reference methods and gradients
   Taras Petrenko         : DFT Hessian,TD-DFT gradient, ASA, ECA, R-Raman, ABS, FL, XAS/XES, NRVS
   Peter Pinski           : DLPNO-MP2, DLPNO-MP2 Gradient
   Christoph Reimann      : Effective Core Potentials
   Marius Retegan         : Local ZFS, SOC
   Christoph Riplinger    : Optimizer, TS searches, QM/MM, DLPNO-CCSD(T), (RO)-DLPNO pert. Triples
   Tobias Risthaus        : Range-separated hybrids, TD-DFT gradient, RPA, STAB
   Michael Roemelt        : Original ROCIS implementation
   Masaaki Saitow         : Open-shell DLPNO-CCSD energy and density
   Barbara Sandhoefer     : DKH picture change effects
   Avijit Sen             : IP-ROCIS
   Kantharuban Sivalingam : CASSCF convergence, NEVPT2, FIC-MRCI
   Bernardo de Souza      : ESD, SOC TD-DFT
   Georgi Stoychev        : AutoAux, RI-MP2 NMR, DLPNO-MP2 response
   Willem Van den Heuvel  : Paramagnetic NMR
   Boris Wezisla          : Elementary symmetry handling
   Frank Wennmohs         : Technical directorship


 We gratefully acknowledge several colleagues who have allowed us to
 interface, adapt or use parts of their codes:
   Stefan Grimme, W. Hujo, H. Kruse, P. Pracht,  : VdW corrections, initial TS optimization,
                  C. Bannwarth, S. Ehlert          DFT functionals, gCP, sTDA/sTD-DF
   Ed Valeev, F. Pavosevic, A. Kumar             : LibInt (2-el integral package), F12 methods
   Garnet Chan, S. Sharma, J. Yang, R. Olivares  : DMRG
   Ulf Ekstrom                                   : XCFun DFT Library
   Mihaly Kallay                                 : mrcc  (arbitrary order and MRCC methods)
   Jiri Pittner, Ondrej Demel                    : Mk-CCSD
   Frank Weinhold                                : gennbo (NPA and NBO analysis)
   Christopher J. Cramer and Donald G. Truhlar   : smd solvation model
   Lars Goerigk                                  : TD-DFT with DH, B97 family of functionals
   V. Asgeirsson, H. Jonsson                     : NEB implementation
   FAccTs GmbH                                   : IRC, NEB, NEB-TS, DLPNO-Multilevel, CI-OPT
                                                   MM, QMMM, 2- and 3-layer-ONIOM, Crystal-QMMM,
                                                   LR-CPCM, SF, NACMEs, symmetry and pop. for TD-DFT,
                                                   nearIR, NL-DFT gradient (VV10), updates on ESD,
                                                   ML-optimized integration grids
   S Lehtola, MJT Oliveira, MAL Marques          : LibXC Library
   Liviu Ungur et al                             : ANISO software


 Your calculation uses the libint2 library for the computation of 2-el integrals
 For citations please refer to: http://libint.valeyev.net

 Your ORCA version has been built with support for libXC version: 5.1.0
 For citations please refer to: https://tddft.org/programs/libxc/

 This ORCA versions uses:
   CBLAS   interface :  Fast vector & matrix operations
   LAPACKE interface :  Fast linear algebra routines
   SCALAPACK package :  Parallel linear algebra routines
   Shared memory     :  Shared parallel matrices
   BLAS/LAPACK       :  OpenBLAS 0.3.15  USE64BITINT DYNAMIC_ARCH NO_AFFINITY SkylakeX SINGLE_THREADED
        Core in use  :  SkylakeX
   Copyright (c) 2011-2014, The OpenBLAS Project




################################################################################


                                COMPOUND JOB MainJOB 
Basename: h2o_lw1x-p34_Compound_0

################################################################################

================================================================================
                                       INPUT FILE
================================================================================
NAME = h2o_lw1x-p34_Compound_0.inp
|  1> %Maxcore 1000
|  2>  %Pal nprocs 5 End
|  3>  
|  4>  * xyz 0 1
|  5>  O        0.000000    0.000000    0.117688 
|  6>  H        0.000000    0.760247   -0.470754 
|  7>  H        0.000000   -0.760247   -0.470754 
|  8>  *
|  9>  
| 10> 
| 11>                          ****END OF INPUT****
================================================================================
================================================================================

----- Orbital basis set information -----
Your calculation utilizes the basis: def2-SVP
   F. Weigend and R. Ahlrichs, Phys. Chem. Chem. Phys. 7, 3297 (2005).



################################################################################


                                COMPOUND JOB  1 
Basename: h2o_lw1x-p34_Compound_1
NOTE: please remember that MaxCore and PAL settings will be ignored.

################################################################################

================================================================================
                                       INPUT FILE
================================================================================
NAME = h2o_lw1x-p34_Compound_1.inp
|  1>     ! DKH DefGrid3 RIJCOSX TightPNO DLPNO-MP2 MiniPrint NoPop
|  2>     %Basis
|  3>       Basis         "cc-pVTZ-DK"
|  4>       AuxJ          "AutoAux"
|  5>       AuxC          "AutoAux"
|  6>       CABS          "AutoAux"
|  7>       NewGTO     Ga "cc-pVTZ-DK" End
|  8>       NewAuxjGTO Ga "AutoAux" End
|  9>       NewAuxcGTO Ga "AutoAux" End
| 10>       NewCabsGTO Ga "AutoAux" End
| 11>       NewGTO     Ge "cc-pVTZ-DK" End
| 12>       NewAuxjGTO Ge "AutoAux" End
| 13>       NewAuxcGTO Ge "AutoAux" End
| 14>       NewCabsGTO Ge "AutoAux" End
| 15>       NewGTO     As "cc-pVTZ-DK" End
| 16>       NewAuxjGTO As "AutoAux" End
| 17>       NewAuxcGTO As "AutoAux" End
| 18>       NewCabsGTO As "AutoAux" End
| 19>       NewGTO     Se "cc-pVTZ-DK" End
| 20>       NewAuxjGTO Se "AutoAux" End
| 21>       NewAuxcGTO Se "AutoAux" End
| 22>       NewCabsGTO Se "AutoAux" End
| 23>       NewGTO     Br "cc-pVTZ-DK" End
| 24>       NewAuxjGTO Br "AutoAux" End
| 25>       NewAuxcGTO Br "AutoAux" End
| 26>       NewCabsGTO Br "AutoAux" End
| 27>       NewGTO     Kr "cc-pVTZ-DK" End
| 28>       NewAuxjGTO Kr "AutoAux" End
| 29>       NewAuxcGTO Kr "AutoAux" End
| 30>       NewCabsGTO Kr "AutoAux" End
| 31>       NewGTO     In "cc-pVTZ-DK" End
| 32>       NewAuxjGTO In "AutoAux" End
| 33>       NewAuxcGTO In "AutoAux" End
| 34>       NewCabsGTO In "AutoAux" End
| 35>       NewGTO     Sn "cc-pVTZ-DK" End
| 36>       NewAuxjGTO Sn "AutoAux" End
| 37>       NewAuxcGTO Sn "AutoAux" End
| 38>       NewCabsGTO Sn "AutoAux" End
| 39>       NewGTO     Sb "cc-pVTZ-DK" End
| 40>       NewAuxjGTO Sb "AutoAux" End
| 41>       NewAuxcGTO Sb "AutoAux" End
| 42>       NewCabsGTO Sb "AutoAux" End
| 43>       NewGTO     Te "cc-pVTZ-DK" End
| 44>       NewAuxjGTO Te "AutoAux" End
| 45>       NewAuxcGTO Te "AutoAux" End
| 46>       NewCabsGTO Te "AutoAux" End
| 47>       NewGTO     I  "cc-pVTZ-DK" End
| 48>       NewAuxjGTO I  "AutoAux" End
| 49>       NewAuxcGTO I  "AutoAux" End
| 50>       NewCabsGTO I  "AutoAux" End
| 51>       NewGTO     Xe "cc-pVTZ-DK" End
| 52>       NewAuxjGTO Xe "AutoAux" End
| 53>       NewAuxcGTO Xe "AutoAux" End
| 54>       NewCabsGTO Xe "AutoAux" End
| 55>     End
| 56> 
| 57>                          ****END OF INPUT****
================================================================================
Warning! AutoAux has not been tested for CABS - use at your own risk!
================================================================================

----- Orbital basis set information -----
Your calculation utilizes the basis: cc-pVTZ-DK 
    H-He, B-Ne : Obtained from the ccRepo (grant-hill.group.shef.ac.uk/ccrepo) Feb. 2017
                 W. A. de Jong, R. J. Harrison, D. A. Dixon, J. Chem. Phys. 114, 48 (2001)
  Li-Be, Na-Mg : Obtained from the Peterson Research Group Website (tyr0.chem.wsu.edu/~kipeters) Feb. 2017
                 B. P. Prascher, D. E. Woon, K. A. Peterson, T. H. Dunning, Jr., A. K. Wilson, Theor. Chem. Acc. 128, 69 (2011)
  Al-Ar, Ga-Kr : Obtained from the EMSL Basis Set Exchange (bse.pnl.gov) Feb. 2017
                 W. A. de Jong, R. J. Harrison, D. A. Dixon, J. Chem. Phys. 114, 48 (2001)
         Sc-Zn : Obtained from the ccRepo (grant-hill.group.shef.ac.uk/ccrepo) Feb. 2017
                 N. B. Balabanov, K. A. Peterson, J. Chem. Phys. 123, 064107 (2005)
                 N. B. Balabanov, K. A. Peterson, J. Chem. Phys. 125, 074110 (2006)
          Y-Pd : Obtained from the ccRepo (grant-hill.group.shef.ac.uk/ccrepo) Feb. 2017
                 K. A. Peterson, D. Figgen, M. Dolg, H. Stoll, J. Chem. Phys. 126, 124101 (2007)
  Ag-Cd, Au-Hg : Obtained from the ccRepo (grant-hill.group.shef.ac.uk/ccrepo) Feb. 2017
                 K. A. Peterson, C. Puzzarini, Theor. Chem. Acc. 114, 283 (2005)
  In-Xe, Tl-Rn : Obtained from the ccRepo (grant-hill.group.shef.ac.uk/ccrepo) Feb. 2017
                 D. H. Bross, K. A. Peterson, Theor. Chem. Acc. 133, 1434 (2014)
         Hf-Pt : Obtained from the ccRepo (grant-hill.group.shef.ac.uk/ccrepo) Feb. 2017
                 D. Figgen, K. A. Peterson, M. Dolg, H. Stoll, J. Chem. Phys. 130, 164108 (2009)

The basis set includes element-specific modifications.

----- AuxJ basis set information -----
Your calculation utilizes the AutoAux generation procedure.
  G. L. Stoychev, A. A. Auer, F. Neese, J. Chem. Theory Comput. 13, 554 (2017)

The basis set includes element-specific modifications.

----- AuxC basis set information -----
Your calculation utilizes the AutoAux generation procedure.
  G. L. Stoychev, A. A. Auer, F. Neese, J. Chem. Theory Comput. 13, 554 (2017)

The basis set includes element-specific modifications.

----- CABS information -----
Your calculation utilizes the AutoAux generation procedure.
  G. L. Stoychev, A. A. Auer, F. Neese, J. Chem. Theory Comput. 13, 554 (2017)

The basis set includes element-specific modifications.


                    <<< The CABS basis set will be decontracted >>>

================================================================================
                                        WARNINGS
                       Please study these warnings very carefully!
================================================================================


WARNING: No MP2 level density has been requested!
         To caclulate MP2 level properties use
         %mp2 Density relaxed end
         or
         %mp2 Density unrelaxed end

WARNING: Post HF methods need fully converged wavefunctions
  ===> : Setting SCFConvForced true
         You can overwrite this default with %scf ConvForced false 


INFO   : the flag for use of the SHARK integral package has been found!


                       ****************************
                       * Single Point Calculation *
                       ****************************

---------------------------------
CARTESIAN COORDINATES (ANGSTROEM)
---------------------------------
  O      0.000000    0.000000    0.117688
  H      0.000000    0.760247   -0.470754
  H      0.000000   -0.760247   -0.470754

----------------------------
CARTESIAN COORDINATES (A.U.)
----------------------------
  NO LB      ZA    FRAG     MASS         X           Y           Z
   0 O     8.0000    0    15.999    0.000000    0.000000    0.222398
   1 H     1.0000    0     1.008    0.000000    1.436659   -0.889596
   2 H     1.0000    0     1.008    0.000000   -1.436659   -0.889596



           ************************************************************
           *        Program running with 5 parallel MPI-processes     *
           *              working on a common directory               *
           ************************************************************
------------------------------------------------------------------------------
                   ___                                                        
                  /   \      - P O W E R E D   B Y -                         
                 /     \                                                     
                 |  |  |   _    _      __       _____    __    __             
                 |  |  |  | |  | |    /  \     |  _  \  |  |  /  |          
                  \  \/   | |  | |   /    \    | | | |  |  | /  /          
                 / \  \   | |__| |  /  /\  \   | |_| |  |  |/  /          
                |  |  |   |  __  | /  /__\  \  |    /   |      \           
                |  |  |   | |  | | |   __   |  |    \   |  |\   \          
                \     /   | |  | | |  |  |  |  | |\  \  |  | \   \       
                 \___/    |_|  |_| |__|  |__|  |_| \__\ |__|  \__/        
                                                                              
                      - O R C A' S   B I G   F R I E N D -                    
                                      &                                       
                       - I N T E G R A L  F E E D E R -                       
                                                                              
 v1 FN, 2020, v2 2021                                                         
------------------------------------------------------------------------------


Reading SHARK input file h2o_lw1x-p34_Compound_1.SHARKINP.tmp ... ok
----------------------
SHARK INTEGRAL PACKAGE
----------------------

Number of atoms                             ...      3
Number of basis functions                   ...     58
Number of shells                            ...     22
Maximum angular momentum                    ...      3
Integral batch strategy                     ... SHARK/LIBINT Hybrid
RI-J (if used) integral strategy            ... SPLIT-RIJ (Revised 2003 algorithm where possible)
Printlevel                                  ...      1
Contraction scheme used                     ... SEGMENTED contraction
Coulomb Range Separation                    ... NOT USED
Exchange Range Separation                   ... NOT USED
Finite Nucleus Model                        ... NOT USED
Auxiliary Coulomb fitting basis             ... AVAILABLE
   # of basis functions in Aux-J            ...    263
   # of shells in Aux-J                     ...     83
   Maximum angular momentum in Aux-J        ...      4
Auxiliary J/K fitting basis                 ... NOT available
Auxiliary Correlation fitting basis         ... AVAILABLE
   # of basis functions in Aux-C            ...    263
   # of shells in Aux-C                     ...     83
   Maximum angular momentum in Aux-C        ...      4
Auxiliary 'external' fitting basis          ... NOT available
Integral threshold                          ...     1.000000e-10
Primitive cut-off                           ...     1.000000e-11
Primitive pair pre-selection threshold      ...     1.000000e-11

Calculating pre-screening integrals         ... done (  0.5 sec) Dimension = 22
Organizing shell pair data                  ... done (  0.0 sec)
Shell pair information
Total number of shell pairs                 ...       253
Shell pairs after pre-screening             ...       253
Total number of primitive shell pairs       ...       968
Primitive shell pairs kept                  ...       939
          la=0 lb=0:     55 shell pairs
          la=1 lb=0:     70 shell pairs
          la=1 lb=1:     28 shell pairs
          la=2 lb=0:     40 shell pairs
          la=2 lb=1:     28 shell pairs
          la=2 lb=2:     10 shell pairs
          la=3 lb=0:     10 shell pairs
          la=3 lb=1:      7 shell pairs
          la=3 lb=2:      4 shell pairs
          la=3 lb=3:      1 shell pairs

Calculating one electron integrals          ... done (  0.1 sec)
Calculating RI/J V-Matrix + Cholesky decomp.... done (  0.4 sec)
Calculating RI/C V-Matrix + Cholesky decomp.... done (  0.0 sec)
Calculating Nuclear repulsion               ... done (  0.0 sec) ENN=      9.155047173065 Eh

SHARK setup successfully completed in   1.3 seconds

Maximum memory used throughout the entire GTOINT-calculation: 17.3 MB


           ************************************************************
           *        Program running with 5 parallel MPI-processes     *
           *              working on a common directory               *
           ************************************************************
------------------------------------------------------------------------------
                          ORCA RELATIVISTIC HAMILTONIAN
------------------------------------------------------------------------------

Relativistic Method            ... DKH
Order of DKH treatment         ...   2
Treatment of potential         ... V(e,N)
Eps parameter for DKH          ...   0.00000000010000
Nucleus model                  ... Point Nucleus
Speed of light used            ... 137.03598950000000


            ************************************************
            *        DOUGLAS-KROLL-HESS HAMILTONIAN        *
            *   Programmed by FN according to literature   *
            *        procedures. Special thanks to         *
            *       B.A. Hess, M. Reiher and A. Wolf       *
            *     University Erlangen-Nuernberg/Bonn       *
            ************************************************

Uncontracting the basis (second version)       ... done
Basis set overlap                              ... done
Number of contracted basis functions           ...   58
Number of uncontracted basis functions         ...   74
Initializing the DKH file                      ... done
Calculating the relativistic integrals         ... done
Storing DKH matrices                           ... done
Code used for DKH trafo                        ... ORCA
Computing the DKH transformation               ... done
Storing the transformation variables           ... done
Transforming V and pVp to p**2 space           ... done
First transformation of V and pVp              ... done
Second transformation of Veff                  ... done
Adding kinetic energy                          ... done
Back transformation of Veff to r-space         ... done
Recovering DKH matrices                        ... done
Recontracting the H-matrix (second version)    ... done
Computing the DKH correction to the H-matrix   ... done
Reading the original H-matrix                  ... done
Adding DKH correction to the H-matrix          ... done
Storing the new modified H-matrix              ... done

Maximum memory used throughout the entire REL-calculation: 45.8 MB


           ************************************************************
           *        Program running with 5 parallel MPI-processes     *
           *              working on a common directory               *
           ************************************************************

Diagonalization of the overlap matrix:
Smallest eigenvalue                        ... 2.531e-03
Time for diagonalization                   ...    0.251 sec
Threshold for overlap eigenvalues          ... 1.000e-08
Number of eigenvalues below threshold      ... 0
Time for construction of square roots      ...    0.066 sec
Total time needed                          ...    0.321 sec

Time for model grid setup =    0.259 sec

Loading DKH relativistic densities                 ... done
Calculating cut-offs                               ... done
Initializing the effective Hamiltonian             ... done
Setting up the integral package (SHARK)            ... done
Starting the Coulomb interaction                   ... done (   0.3 sec)
Reading the grid                                   ... done
Mapping shells                                     ... done
Starting the XC term evaluation                    ... done (   0.0 sec)
Transforming the Hamiltonian                       ... done (   0.0 sec)
Diagonalizing the Hamiltonian                      ... done (   0.0 sec)
Back transforming the eigenvectors                 ... done (   0.0 sec)
Now organizing SCF variables                       ... done
--------------------
COSX GRID GENERATION
--------------------

GRIDX 1
-------
General Integration Accuracy     IntAcc      ... 4.020
Radial Grid Type                 RadialGrid  ... OptM3 with GC (2021)
Angular Grid (max. ang.)         AngularGrid ... 2 (Lebedev-110)
Angular grid pruning method      GridPruning ... 4 (adaptive)
Weight generation scheme         WeightScheme... Becke
Basis function cutoff            BFCut       ... 1.0000e-10
Integration weight cutoff        WCut        ... 1.0000e-14
Angular grids for H and He will be reduced by one unit
Partially contracted basis set               ... on
Rotationally invariant grid construction     ... off

Total number of grid points                  ...     3498
Total number of batches                      ...       56
Average number of points per batch           ...       62
Average number of grid points per atom       ...     1166
UseSFitting                                  ... on

GRIDX 2
-------
General Integration Accuracy     IntAcc      ... 4.338
Radial Grid Type                 RadialGrid  ... OptM3 with GC (2021)
Angular Grid (max. ang.)         AngularGrid ... 3 (Lebedev-194)
Angular grid pruning method      GridPruning ... 4 (adaptive)
Weight generation scheme         WeightScheme... Becke
Basis function cutoff            BFCut       ... 1.0000e-10
Integration weight cutoff        WCut        ... 1.0000e-14
Angular grids for H and He will be reduced by one unit
Partially contracted basis set               ... on
Rotationally invariant grid construction     ... off

Total number of grid points                  ...     7780
Total number of batches                      ...      123
Average number of points per batch           ...       63
Average number of grid points per atom       ...     2593
UseSFitting                                  ... on

GRIDX 3
-------
General Integration Accuracy     IntAcc      ... 4.871
Radial Grid Type                 RadialGrid  ... OptM3 with GC (2021)
Angular Grid (max. ang.)         AngularGrid ... 4 (Lebedev-302)
Angular grid pruning method      GridPruning ... 4 (adaptive)
Weight generation scheme         WeightScheme... Becke
Basis function cutoff            BFCut       ... 1.0000e-10
Integration weight cutoff        WCut        ... 1.0000e-14
Angular grids for H and He will be reduced by one unit
Partially contracted basis set               ... on
Rotationally invariant grid construction     ... off

Total number of grid points                  ...    15748
Total number of batches                      ...      247
Average number of points per batch           ...       63
Average number of grid points per atom       ...     5249
UseSFitting                                  ... on

Time for X-Grid setup             =    0.169 sec

 re-compute Schwartz prescreening matrix in partically contracted basis (1) ...done (   0.524 sec)
--------------
SCF ITERATIONS
--------------
ITER       Energy         Delta-E        Max-DP      RMS-DP      [F,P]     Damp
               ***  Starting incremental Fock matrix formation  ***
  0    -76.0042294936   0.000000000000 0.03407902  0.00168145  0.3892559 0.7000
  1    -76.0455554478  -0.041325954225 0.02344781  0.00115011  0.2305757 0.7000
                               ***Turning on DIIS***
  2    -76.0672067074  -0.021651259590 0.01138861  0.00063433  0.1256684 0.7000
  3    -76.2336537753  -0.166447067884 0.02687502  0.00100093  0.0848217 0.0000
  4    -76.0899393997   0.143714375533 0.00544684  0.00023125  0.0143114 0.0000
  5    -76.1115097306  -0.021570330915 0.00158332  0.00009959  0.0033616 0.0000
                      *** Initiating the SOSCF procedure ***
                           *** Shutting down DIIS ***
                      *** Re-Reading the Fockian *** 
                      *** Removing any level shift *** 
ITER      Energy       Delta-E        Grad      Rot      Max-DP    RMS-DP
  6    -76.10882986   0.0026798708  0.000887  0.000887  0.001059  0.000056
               *** Restarting incremental Fock matrix formation ***
  7    -76.10851926   0.0003106036  0.000256  0.000357  0.000510  0.000020
                 **** Energy Check signals convergence ****
              ***Rediagonalizing the Fockian in SOSCF/NRSCF***

               *****************************************************
               *                     SUCCESS                       *
               *           SCF CONVERGED AFTER   8 CYCLES          *
               *****************************************************

Old exchange energy                            =     -8.964127012 Eh
New exchange energy                            =     -8.964186602 Eh
Exchange energy change after final integration =     -0.000059590 Eh
Total energy after final integration           =    -76.108579298 Eh
Final COS-X integration done in                =     0.141 sec
Total Energy       :          -76.10857930 Eh           -2071.01973 eV
  Last Energy change         ...   -4.5214e-07  Tolerance :   1.0000e-06
  Last MAX-Density change    ...    1.7764e-15  Tolerance :   1.0000e-05
             **** THE GBW FILE WAS UPDATED (h2o_lw1x-p34_Compound_1.gbw) ****
             **** DENSITY h2o_lw1x-p34_Compound_1.scfp WAS UPDATED ****
             **** ENERGY FILE WAS UPDATED (h2o_lw1x-p34_Compound_1.en.tmp) ****
             **** THE GBW FILE WAS UPDATED (h2o_lw1x-p34_Compound_1.gbw) ****
             **** DENSITY h2o_lw1x-p34_Compound_1.scfp WAS UPDATED ****
----------------
ORBITAL ENERGIES
----------------

  NO   OCC          E(Eh)            E(eV) 
   0   2.0000     -20.570676      -559.7566 
   1   2.0000      -1.345109       -36.6023 
   2   2.0000      -0.707271       -19.2458 
   3   2.0000      -0.576881       -15.6977 
   4   2.0000      -0.503881       -13.7113 
   5   0.0000       0.141690         3.8556 
   6   0.0000       0.203718         5.5434 
   7   0.0000       0.542511        14.7625 
   8   0.0000       0.599672        16.3179 
   9   0.0000       0.668877        18.2011 
  10   0.0000       0.787350        21.4249 
  11   0.0000       0.800025        21.7698 
  12   0.0000       0.805076        21.9072 
  13   0.0000       0.860269        23.4091 
  14   0.0000       0.954816        25.9819 
  15   0.0000       1.133874        30.8543 
  16   0.0000       1.194611        32.5070 
  17   0.0000       1.523234        41.4493 
  18   0.0000       1.559188        42.4277 
  19   0.0000       2.035232        55.3815 
  20   0.0000       2.058213        56.0068 
  21   0.0000       2.064459        56.1768 
  22   0.0000       2.170028        59.0495 
  23   0.0000       2.235389        60.8280 
  24   0.0000       2.587688        70.4146 
  25   0.0000       2.959982        80.5452 
  26   0.0000       3.355650        91.3119 
  27   0.0000       3.488726        94.9331 
  28   0.0000       3.578616        97.3791 
  29   0.0000       3.650111        99.3246 
  30   0.0000       3.796437       103.3063 
  31   0.0000       3.873826       105.4122 
  32   0.0000       3.883279       105.6694 
  33   0.0000       3.958522       107.7169 
  34   0.0000       4.017933       109.3335 
  35   0.0000       4.073758       110.8526 
  36   0.0000       4.186495       113.9203 
  37   0.0000       4.306754       117.1927 
  38   0.0000       4.381379       119.2234 
  39   0.0000       4.573263       124.4448 
  40   0.0000       4.680687       127.3680 
  41   0.0000       4.855614       132.1280 
  42   0.0000       5.141054       139.8952 
  43   0.0000       5.247467       142.7908 
  44   0.0000       5.524721       150.3353 
  45   0.0000       6.042836       164.4339 
  46   0.0000       6.553044       178.3174 
  47   0.0000       6.909153       188.0076 
  48   0.0000       6.934760       188.7044 
  49   0.0000       7.000014       190.4801 
  50   0.0000       7.007391       190.6808 
  51   0.0000       7.049128       191.8165 
  52   0.0000       7.162710       194.9073 
  53   0.0000       7.226793       196.6510 
  54   0.0000       7.451102       202.7548 
  55   0.0000       7.781786       211.7532 
  56   0.0000       8.268905       225.0083 
  57   0.0000      12.776532       347.6671 
Total SCF time: 0 days 0 hours 0 min 4 sec 

Maximum memory used throughout the entire SCF-calculation: 58.3 MB


           ************************************************************
           *        Program running with 5 parallel MPI-processes     *
           *              working on a common directory               *
           ************************************************************

------------------------------------------------------------------------------
                                ORCA  MP2 
------------------------------------------------------------------------------

Freezing NCore=2 chemical core electrons
Initializing SHARK ... done


------------------------------------------------------------------------------
                           ORCA ORBITAL LOCALIZATION
------------------------------------------------------------------------------

Input orbitals are from                  ... h2o_lw1x-p34_Compound_1.gbw
Output orbitals are to                   ... h2o_lw1x-p34_Compound_1.loc
Max. number of iterations                ... 128
Localizations seeded randomly            ... off
Convergence tolerance                    ... 1.000e-06
Treshold for strong local MOs            ... 9.500e-01
Treshold for bond MOs                    ... 8.500e-01
Operator                                 ... 0
Orbital range for localization           ... 1 to 4
Localization criterion                   ... FOSTER-BOYS (AUGMENTED HESSIAN)
Doing the dipole integrals     ... o.k.
Initial value of the localization sum :     0.244761
ITERATION   0 : L=    2.3694140898 DL=  2.12e+00 (AVERGE_DL)=    0.5950704568 
ITERATION   1 : L=    2.4378307912 DL=  6.84e-02 (AVERGE_DL)=    0.1067838170 
ITERATION   2 : L=    2.4516807745 DL=  1.38e-02 (AVERGE_DL)=    0.0480450886 
ITERATION   3 : L=    2.4536117881 DL=  1.93e-03 (AVERGE_DL)=    0.0179397770 
ITERATION   4 : L=    2.4537679054 DL=  1.56e-04 (AVERGE_DL)=    0.0051009367 
ITERATION   5 : L=    2.4537835815 DL=  1.57e-05 (AVERGE_DL)=    0.0016163826 
ITERATION   6 : L=    2.4537850036 DL=  1.42e-06 (AVERGE_DL)=    0.0004868360 
ITERATION   7 : L=    2.4537851335 DL=  1.30e-07 (AVERGE_DL)=    0.0001471417 
LOCALIZATION SUM CONVERGED

------------------------------------------------------
AUGMENTED HESSIAN OPTIMIZATION OF FOSTER-BOYS ORBITALS
------------------------------------------------------

Spin operator:           0
Orbital window:          1 to 4
Number of iterations:    128
Gradient tolerance:      1.000e-06
Number of pairs:         6
Davidson threshold:      2000
Diagonalization method:  LAPACK
Iter:    0   L: 2.4537851335   Grad. norm: 2.105684e-04
   *** Likely close to a maximum now. ***
       Augmented Hessian eigenvalues:  2.54e-08 -1.30e+00 -3.26e+00 -4.74e+00 ... 
Iter:    1   L: 2.4537851462   Grad. norm: 1.222234e-08
LOCALIZATION HAS CONVERGED.

Eigenvalues of the Hessian:
  0 -1.304e+00
  1 -3.257e+00
  2 -4.736e+00
  3 -5.363e+00
  4 -7.232e+00
  5 -9.651e+00


------------------------------------------------------------------------------- 
                    LOCALIZED MOLECULAR ORBITAL COMPOSITIONS                   
------------------------------------------------------------------------------- 

The Mulliken populations for each LMO on each atom are computed
The LMO`s will be ordered according to atom index and type
  (A) Strongly localized MO`s have populations of >=0.950 on one atom
  (B) Two center bond orbitals have populations of >=0.850 on two atoms
  (C) Other MO`s are considered to be `delocalized`

FOUND  -   2 strongly local MO`s
       -   2 two center bond MO`s
       -   0 significantly delocalized MO`s

Rather strongly localized orbitals:
MO   2:   0O  -   0.991558
MO   1:   0O  -   0.991558
Bond-like localized orbitals:
MO   4:   2H  -   0.378673  and   0O  -   0.629995
MO   3:   1H  -   0.378673  and   0O  -   0.629995
Localized MO's were stored in: h2o_lw1x-p34_Compound_1.loc



Calculating differential overlap integrals ... ok
Threshold for domain construction in prescreening: TCutDOPre = 3.0e-02

--------------------------
ELECTRON PAIR PRESCREENING
--------------------------

Dipole-based pair screening          .... used

   TCutDOij = 1.000000e-05
   TCutPre  = 1.000000e-06
   .... Finished loop over pairs
Total time spent in the prescreening                  ...     0.005 sec
sum of pair energies estimated for screened out pairs ...       0.000000000000 Eh

---------------------------
MAP CONSTRUCTION THRESHOLDS
---------------------------
    TCutMKN     ...     1.0e-03
    TCutDO      ...     5.0e-03
    TCutC(MO)   ...     1.0e-03
    TCutC(PAO)  ...     1.0e-03

--------------------------------
LOCAL RI TRANSFORMATION (IAVPAO)
--------------------------------

Orbital window:       1 to 4
Number of PAOs:      58
Basis functions:     58 (22 shells)
Aux. functions:     263 (83 shells)
Use SHARK:           on

Processing maps (0.0 sec)
Average map sizes:
   Aux shells -> MOs               4.0
   Aux shells -> PAOs             58.0
   MOs        -> AO shells        22.0
   PAOs       -> AO shells        22.0

Calculating integrals (0.9 sec, 0.469 MB)
Sorting integrals (0.0 sec, 0.466 MB)
Total time for the integral transformation: 0.9 sec

----------------------------
Local MP2 Energy Calculation
----------------------------
Number of orbital pairs included:     10
Truncation parameters:
    PAOOverlapThresh    =        1.000e-08
    TCutPNO             =        1.000e-09

Spin component scaling                      .... not used
MP2 energy scaling factor                   .... 1.000

Formation of semicanonical amplitudes.
 10% done.
 20% done.
 30% done.
 40% done.
 50% done.
 60% done.
 70% done.
 80% done.
 90% done.
100% done.

Finished the LMP2 guess in 0.1 sec.

Average number of PAOs per pair         58.0
Average number of nrPAOs per pair       53.0
Average number of PNOs per pair         53.0
Average number of AUX  per pair        263.0

Semicanonical MP2 energy:                   -0.254388287991 Eh
Semicanonical MP2 energy in PNO basis:      -0.254388287991 Eh

Initial amplitudes guess done. Entering DLPNO-MP2 iteration loop:
   Max. no of iterations          ...  100
   Energy convergence tolerance   ...    1.0e-06 Eh
   Residual convergence tolerance ...    5.0e-06
   Fock matrix cutoff             ...    1.0e-05 Eh
   Max # vectors in DIIS          ...  7
   Start iteration of DIIS        ...  0
   Levelshift                     ...  2.000e-01 Eh
   Damping before turning on DIIS ...  5.000e-01
   Damping after turning on DIIS  ...  0.000e+00

                           *** Turning on DIIS ***
Iter=   0:  ECORR= -0.259052953394  DE=   4.7e-03 RMAX=   9.5e-03
Iter=   1:  ECORR= -0.261553029900  DE=   2.5e-03 RMAX=   2.0e-03
Iter=   2:  ECORR= -0.261895179872  DE=   3.4e-04 RMAX=   5.2e-04
Iter=   3:  ECORR= -0.261935746954  DE=   4.1e-05 RMAX=   1.6e-04
Iter=   4:  ECORR= -0.261939249274  DE=   3.5e-06 RMAX=   2.3e-05
Iter=   5:  ECORR= -0.261939171359  DE=   7.8e-08 RMAX=   6.9e-06
Iter=   6:  ECORR= -0.261939137749  DE=   3.4e-08 RMAX=   5.9e-07 => CONVERGED

Finished the DLPNO-MP2 iterations in 0.5 sec.

LMP2 correlation energy (all non-screened pairs)      ...     -0.261939137749 Eh
Semicanonical PNO correction to energy                ...      0.000000000000 Eh
Sum of pair energies estimated for screened out pairs ...      0.000000000000 Eh
                                                         -----------------------
Total:                                                ...     -0.261939137749 Eh

------------------------------------------------------
 DLPNO-MP2 CORRELATION ENERGY:      -0.261939137749 Eh
------------------------------------------------------

TIMINGS FOR DLPNO-MP2:
Localization                             ...        0.655 sec
Differential overlap integrals           ...        0.629 sec
Prescreening                             ...        0.286 sec
Map setup                                ...        0.055 sec
(ia|v) trafo                             ...        0.960 sec
Semicanonical amplitudes                 ...        0.109 sec
PNO construction                         ...        0.007 sec
DLPNO-MP2 iterations                     ...        0.508 sec
                                             ----------------
Total time                                          4.472 sec


---------------------------------------
MP2 TOTAL ENERGY:      -76.370518436 Eh
---------------------------------------

Maximum memory used throughout the entire MP2-calculation: 105.5 MB

-------------------------   --------------------
FINAL SINGLE POINT ENERGY       -76.370518436042
-------------------------   --------------------


                            ***************************************
                            *     ORCA property calculations      *
                            ***************************************


  WARNING: The energy has been calculated at the MP2 level but the densities
           used in the property calculations are still SCF densities
           MP2 response densities have not been calculated 
           use %mp2 Density relaxed end
           or  %mp2 Density unrelaxed end

                                    ---------------------
                                    Active property flags
                                    ---------------------
   (+) Dipole Moment


------------------------------------------------------------------------------
                       ORCA ELECTRIC PROPERTIES CALCULATION
------------------------------------------------------------------------------

Dipole Moment Calculation                       ... on
Quadrupole Moment Calculation                   ... off
Polarizability Calculation                      ... off
GBWName                                         ... h2o_lw1x-p34_Compound_1.gbw
Electron density                                ... h2o_lw1x-p34_Compound_1.scfp
The origin for moment calculation is the CENTER OF MASS  = ( 0.000000,  0.000000  0.097958)

-------------
DIPOLE MOMENT
-------------
                                X             Y             Z
Electronic contribution:     -0.00000       0.00000       0.18307
Nuclear contribution   :      0.00000       0.00000      -0.97959
                        -----------------------------------------
Total Dipole Moment    :     -0.00000       0.00000      -0.79652
                        -----------------------------------------
Magnitude (a.u.)       :      0.79652
Magnitude (Debye)      :      2.02459



--------------------
Rotational spectrum 
--------------------
 
Rotational constants in cm-1:    27.191958    14.467615     9.443274 
Rotational constants in MHz : 815194.382788 433728.186196 283102.243345 

 Dipole components along the rotational axes: 
x,y,z [a.u.] :     0.000000    -0.796519    -0.000000 
x,y,z [Debye]:     0.000000    -2.024589    -0.000000 

 

Timings for individual modules:

Sum of individual times         ...       17.785 sec (=   0.296 min)
GTO integral calculation        ...        5.213 sec (=   0.087 min)  29.3 %
Relativistic integrals          ...        0.801 sec (=   0.013 min)   4.5 %
SCF iterations                  ...        5.615 sec (=   0.094 min)  31.6 %
MP2 module                      ...        6.156 sec (=   0.103 min)  34.6 %


################################################################################


                                COMPOUND JOB  2 
Basename: h2o_lw1x-p34_Compound_2
NOTE: please remember that MaxCore and PAL settings will be ignored.

################################################################################

================================================================================
                                       INPUT FILE
================================================================================
NAME = h2o_lw1x-p34_Compound_2.inp
|  1>     ! DefGrid3 RIJCOSX TightPNO DLPNO-MP2 MiniPrint NoPop
|  2>     %Basis
|  3>       Basis         "cc-pVTZ"
|  4>       AuxJ          "AutoAux"
|  5>       AuxC          "AutoAux"
|  6>       CABS          "AutoAux"
|  7>       NewECP     Ga "SK-MCDHF-RSC" End
|  8>       NewGTO     Ga "cc-pVTZ-PP"   End
|  9>       NewAuxjGTO Ga "AutoAux" End
| 10>       NewAuxcGTO Ga "AutoAux" End
| 11>       NewCabsGTO Ga "AutoAux" End
| 12>       NewECP     Ge "SK-MCDHF-RSC" End
| 13>       NewGTO     Ge "cc-pVTZ-PP"   End
| 14>       NewAuxjGTO Ge "AutoAux" End
| 15>       NewAuxcGTO Ge "AutoAux" End
| 16>       NewCabsGTO Ge "AutoAux" End
| 17>       NewECP     As "SK-MCDHF-RSC" End
| 18>       NewGTO     As "cc-pVTZ-PP"   End
| 19>       NewAuxjGTO As "AutoAux" End
| 20>       NewAuxcGTO As "AutoAux" End
| 21>       NewCabsGTO As "AutoAux" End
| 22>       NewECP     Se "SK-MCDHF-RSC" End
| 23>       NewGTO     Se "cc-pVTZ-PP"   End
| 24>       NewAuxjGTO Se "AutoAux" End
| 25>       NewAuxcGTO Se "AutoAux" End
| 26>       NewCabsGTO Se "AutoAux" End
| 27>       NewECP     Br "SK-MCDHF-RSC" End
| 28>       NewGTO     Br "cc-pVTZ-PP"   End
| 29>       NewAuxjGTO Br "AutoAux" End
| 30>       NewAuxcGTO Br "AutoAux" End
| 31>       NewCabsGTO Br "AutoAux" End
| 32>       NewECP     Kr "SK-MCDHF-RSC" End
| 33>       NewGTO     Kr "cc-pVTZ-PP"   End
| 34>       NewAuxjGTO Kr "AutoAux" End
| 35>       NewAuxcGTO Kr "AutoAux" End
| 36>       NewCabsGTO Kr "AutoAux" End
| 37>       NewECP     In "SK-MCDHF-RSC" End
| 38>       NewGTO     In "cc-pVTZ-PP"   End
| 39>       NewAuxjGTO In "AutoAux" End
| 40>       NewAuxcGTO In "AutoAux" End
| 41>       NewCabsGTO In "AutoAux" End
| 42>       NewECP     Sn "SK-MCDHF-RSC" End
| 43>       NewGTO     Sn "cc-pVTZ-PP"   End
| 44>       NewAuxjGTO Sn "AutoAux" End
| 45>       NewAuxcGTO Sn "AutoAux" End
| 46>       NewCabsGTO Sn "AutoAux" End
| 47>       NewECP     Sb "SK-MCDHF-RSC" End
| 48>       NewGTO     Sb "cc-pVTZ-PP"   End
| 49>       NewAuxjGTO Sb "AutoAux" End
| 50>       NewAuxcGTO Sb "AutoAux" End
| 51>       NewCabsGTO Sb "AutoAux" End
| 52>       NewECP     Te "SK-MCDHF-RSC" End
| 53>       NewGTO     Te "cc-pVTZ-PP"   End
| 54>       NewAuxjGTO Te "AutoAux" End
| 55>       NewAuxcGTO Te "AutoAux" End
| 56>       NewCabsGTO Te "AutoAux" End
| 57>       NewECP     I  "SK-MCDHF-RSC" End
| 58>       NewGTO     I  "cc-pVTZ-PP"   End
| 59>       NewAuxjGTO I  "AutoAux" End
| 60>       NewAuxcGTO I  "AutoAux" End
| 61>       NewCabsGTO I  "AutoAux" End
| 62>       NewECP     Xe "SK-MCDHF-RSC" End
| 63>       NewGTO     Xe "cc-pVTZ-PP"   End
| 64>       NewAuxjGTO Xe "AutoAux" End
| 65>       NewAuxcGTO Xe "AutoAux" End
| 66>       NewCabsGTO Xe "AutoAux" End
| 67>     End
| 68> 
| 69>                          ****END OF INPUT****
================================================================================
Warning! AutoAux has not been tested for CABS - use at your own risk!
================================================================================

----- Orbital basis set information -----
Your calculation utilizes the basis: cc-pVTZ 
       H, B-Ne : Obtained from the ccRepo (grant-hill.group.shef.ac.uk/ccrepo) Feb. 2017
                 T. H. Dunning, Jr., J. Chem. Phys. 90, 1007 (1989)
            He : Obtained from the ccRepo (grant-hill.group.shef.ac.uk/ccrepo) Feb. 2017
                 D. E. Woon, T. H. Dunning, Jr., J. Chem. Phys. 100, 2975 (1994)
  Li-Be, Na-Mg : Obtained from the ccRepo (grant-hill.group.shef.ac.uk/ccrepo) Feb. 2017
                 B. P. Prascher, D. E. Woon, K. A. Peterson, T. H. Dunning, Jr., A. K. Wilson, Theor. Chem. Acc. 128, 69 (2011)
         Al-Ar : Obtained from the ccRepo (grant-hill.group.shef.ac.uk/ccrepo) Feb. 2017
                 D. E. Woon, T. H. Dunning, Jr., J. Chem. Phys. 98, 1358 (1993)
            Ca : Obtained from the Peterson Research Group Website (tyr0.chem.wsu.edu/~kipeters) Feb. 2017
                 J. Koput, K. A. Peterson, J. Phys. Chem. 106, 9595 (2002)
         Sc-Zn : Obtained from the ccRepo (grant-hill.group.shef.ac.uk/ccrepo) Feb. 2017
                 N. B. Balabanov, K. A. Peterson, J. Chem. Phys. 123, 064107 (2005)
                 N. B. Balabanov, K. A. Peterson, J. Chem. Phys. 125, 074110 (2006)
         Ga-Kr : Obtained from the ccRepo (grant-hill.group.shef.ac.uk/ccrepo) Feb. 2017
                 A. K. Wilson, D. E. Woon, K. A. Peterson, T. H. Dunning, Jr., J. Chem. Phys. 110, 7667 (1999)
             Y : Obtained from the ccRepo (grant-hill.group.shef.ac.uk/ccrepo) Feb. 2017
                 K. A. Peterson, D. Figgen, M. Dolg, H. Stoll, J. Chem. Phys. 126, 124101 (2007)
        Ag, Au : Obtained from the Peterson Research Group Website (tyr0.chem.wsu.edu/~kipeters) Feb. 2017
                 K. A. Peterson, C. Puzzarini, Theor. Chem. Acc. 114, 283 (2005)

The basis set includes element-specific modifications.

Your calculation utilizes the basis: cc-pVTZ-PP 
       Ca, Sr, Ba, Ra : Obtained from the Peterson Research Group Website (tyr0.chem.wsu.edu/~kipeters) Feb. 2017
                        H. Li, H. Feng, W. Sun, Y. Zhang, Q. Fan, K. A. Peterson, Y. Xie, H. F. Schaefer III, Mol. Phys. 111, 2292 (2013)
  Cu-Zn, Ag-Cd, Au-Hg : Obtained from the ccRepo (grant-hill.group.shef.ac.uk/ccrepo) Feb. 2017
                        K. A. Peterson, C. Puzzarini, Theor. Chem. Acc. 114, 283 (2005)
  Ga-Kr, In-Xe, Tl-Rn : Obtained from the ccRepo (grant-hill.group.shef.ac.uk/ccrepo) Feb. 2017
                        K. A. Peterson, J. Chem. Phys. 119, 11099 (2003)
                        K. A. Peterson, D. Figgen, E. Goll, H. Stoll, M. Dolg, J. Chem. Phys. 119, 11113 (2003)
                 Y-Pd : Obtained from the ccRepo (grant-hill.group.shef.ac.uk/ccrepo) Feb. 2017
                        K. A. Peterson, D. Figgen, M. Dolg, H. Stoll, J. Chem. Phys. 126, 124101 (2007)
                Hf-Pt : Obtained from the ccRepo (grant-hill.group.shef.ac.uk/ccrepo) Feb. 2017
                        D. Figgen, K. A. Peterson, M. Dolg, H. Stoll, J. Chem. Phys. 130, 164108 (2009)
                    U : Obtained from the ccRepo (grant-hill.group.shef.ac.uk/ccrepo) Feb. 2020
                        K. A. Peterson, J. Chem. Phys. 142, 074105 (2015)

----- AuxJ basis set information -----
Your calculation utilizes the AutoAux generation procedure.
  G. L. Stoychev, A. A. Auer, F. Neese, J. Chem. Theory Comput. 13, 554 (2017)

The basis set includes element-specific modifications.

----- AuxC basis set information -----
Your calculation utilizes the AutoAux generation procedure.
  G. L. Stoychev, A. A. Auer, F. Neese, J. Chem. Theory Comput. 13, 554 (2017)

The basis set includes element-specific modifications.

----- CABS information -----
Your calculation utilizes the AutoAux generation procedure.
  G. L. Stoychev, A. A. Auer, F. Neese, J. Chem. Theory Comput. 13, 554 (2017)

The basis set includes element-specific modifications.


                    <<< The CABS basis set will be decontracted >>>

================================================================================
                                        WARNINGS
                       Please study these warnings very carefully!
================================================================================


WARNING: No MP2 level density has been requested!
         To caclulate MP2 level properties use
         %mp2 Density relaxed end
         or
         %mp2 Density unrelaxed end

WARNING: Post HF methods need fully converged wavefunctions
  ===> : Setting SCFConvForced true
         You can overwrite this default with %scf ConvForced false 


INFO   : the flag for use of the SHARK integral package has been found!


                       ****************************
                       * Single Point Calculation *
                       ****************************

---------------------------------
CARTESIAN COORDINATES (ANGSTROEM)
---------------------------------
  O      0.000000    0.000000    0.117688
  H      0.000000    0.760247   -0.470754
  H      0.000000   -0.760247   -0.470754

----------------------------
CARTESIAN COORDINATES (A.U.)
----------------------------
  NO LB      ZA    FRAG     MASS         X           Y           Z
   0 O     8.0000    0    15.999    0.000000    0.000000    0.222398
   1 H     1.0000    0     1.008    0.000000    1.436659   -0.889596
   2 H     1.0000    0     1.008    0.000000   -1.436659   -0.889596



           ************************************************************
           *        Program running with 5 parallel MPI-processes     *
           *              working on a common directory               *
           ************************************************************
------------------------------------------------------------------------------
                   ___                                                        
                  /   \      - P O W E R E D   B Y -                         
                 /     \                                                     
                 |  |  |   _    _      __       _____    __    __             
                 |  |  |  | |  | |    /  \     |  _  \  |  |  /  |          
                  \  \/   | |  | |   /    \    | | | |  |  | /  /          
                 / \  \   | |__| |  /  /\  \   | |_| |  |  |/  /          
                |  |  |   |  __  | /  /__\  \  |    /   |      \           
                |  |  |   | |  | | |   __   |  |    \   |  |\   \          
                \     /   | |  | | |  |  |  |  | |\  \  |  | \   \       
                 \___/    |_|  |_| |__|  |__|  |_| \__\ |__|  \__/        
                                                                              
                      - O R C A' S   B I G   F R I E N D -                    
                                      &                                       
                       - I N T E G R A L  F E E D E R -                       
                                                                              
 v1 FN, 2020, v2 2021                                                         
------------------------------------------------------------------------------


Reading SHARK input file h2o_lw1x-p34_Compound_2.SHARKINP.tmp ... ok
----------------------
SHARK INTEGRAL PACKAGE
----------------------

Number of atoms                             ...      3
Number of basis functions                   ...     58
Number of shells                            ...     22
Maximum angular momentum                    ...      3
Integral batch strategy                     ... SHARK/LIBINT Hybrid
RI-J (if used) integral strategy            ... SPLIT-RIJ (Revised 2003 algorithm where possible)
Printlevel                                  ...      1
Contraction scheme used                     ... SEGMENTED contraction
Coulomb Range Separation                    ... NOT USED
Exchange Range Separation                   ... NOT USED
Finite Nucleus Model                        ... NOT USED
Auxiliary Coulomb fitting basis             ... AVAILABLE
   # of basis functions in Aux-J            ...    263
   # of shells in Aux-J                     ...     83
   Maximum angular momentum in Aux-J        ...      4
Auxiliary J/K fitting basis                 ... NOT available
Auxiliary Correlation fitting basis         ... AVAILABLE
   # of basis functions in Aux-C            ...    263
   # of shells in Aux-C                     ...     83
   Maximum angular momentum in Aux-C        ...      4
Auxiliary 'external' fitting basis          ... NOT available
Integral threshold                          ...     1.000000e-10
Primitive cut-off                           ...     1.000000e-11
Primitive pair pre-selection threshold      ...     1.000000e-11

Calculating pre-screening integrals         ... done (  0.0 sec) Dimension = 22
Organizing shell pair data                  ... done (  0.0 sec)
Shell pair information
Total number of shell pairs                 ...       253
Shell pairs after pre-screening             ...       253
Total number of primitive shell pairs       ...       968
Primitive shell pairs kept                  ...       939
          la=0 lb=0:     55 shell pairs
          la=1 lb=0:     70 shell pairs
          la=1 lb=1:     28 shell pairs
          la=2 lb=0:     40 shell pairs
          la=2 lb=1:     28 shell pairs
          la=2 lb=2:     10 shell pairs
          la=3 lb=0:     10 shell pairs
          la=3 lb=1:      7 shell pairs
          la=3 lb=2:      4 shell pairs
          la=3 lb=3:      1 shell pairs

Calculating one electron integrals          ... done (  0.0 sec)
Calculating RI/J V-Matrix + Cholesky decomp.... done (  0.0 sec)
Calculating RI/C V-Matrix + Cholesky decomp.... done (  0.0 sec)
Calculating Nuclear repulsion               ... done (  0.0 sec) ENN=      9.155047173065 Eh

SHARK setup successfully completed in   0.1 seconds

Maximum memory used throughout the entire GTOINT-calculation: 17.3 MB


           ************************************************************
           *        Program running with 5 parallel MPI-processes     *
           *              working on a common directory               *
           ************************************************************

Diagonalization of the overlap matrix:
Smallest eigenvalue                        ... 2.531e-03
Time for diagonalization                   ...    0.001 sec
Threshold for overlap eigenvalues          ... 1.000e-08
Number of eigenvalues below threshold      ... 0
Time for construction of square roots      ...    0.004 sec
Total time needed                          ...    0.005 sec

--------------------
COSX GRID GENERATION
--------------------

GRIDX 1
-------
General Integration Accuracy     IntAcc      ... 4.020
Radial Grid Type                 RadialGrid  ... OptM3 with GC (2021)
Angular Grid (max. ang.)         AngularGrid ... 2 (Lebedev-110)
Angular grid pruning method      GridPruning ... 4 (adaptive)
Weight generation scheme         WeightScheme... Becke
Basis function cutoff            BFCut       ... 1.0000e-10
Integration weight cutoff        WCut        ... 1.0000e-14
Angular grids for H and He will be reduced by one unit
Partially contracted basis set               ... on
Rotationally invariant grid construction     ... off

Total number of grid points                  ...     3498
Total number of batches                      ...       56
Average number of points per batch           ...       62
Average number of grid points per atom       ...     1166
UseSFitting                                  ... on

GRIDX 2
-------
General Integration Accuracy     IntAcc      ... 4.338
Radial Grid Type                 RadialGrid  ... OptM3 with GC (2021)
Angular Grid (max. ang.)         AngularGrid ... 3 (Lebedev-194)
Angular grid pruning method      GridPruning ... 4 (adaptive)
Weight generation scheme         WeightScheme... Becke
Basis function cutoff            BFCut       ... 1.0000e-10
Integration weight cutoff        WCut        ... 1.0000e-14
Angular grids for H and He will be reduced by one unit
Partially contracted basis set               ... on
Rotationally invariant grid construction     ... off

Total number of grid points                  ...     7780
Total number of batches                      ...      123
Average number of points per batch           ...       63
Average number of grid points per atom       ...     2593
UseSFitting                                  ... on

GRIDX 3
-------
General Integration Accuracy     IntAcc      ... 4.871
Radial Grid Type                 RadialGrid  ... OptM3 with GC (2021)
Angular Grid (max. ang.)         AngularGrid ... 4 (Lebedev-302)
Angular grid pruning method      GridPruning ... 4 (adaptive)
Weight generation scheme         WeightScheme... Becke
Basis function cutoff            BFCut       ... 1.0000e-10
Integration weight cutoff        WCut        ... 1.0000e-14
Angular grids for H and He will be reduced by one unit
Partially contracted basis set               ... on
Rotationally invariant grid construction     ... off

Total number of grid points                  ...    15748
Total number of batches                      ...      247
Average number of points per batch           ...       63
Average number of grid points per atom       ...     5249
UseSFitting                                  ... on

Time for X-Grid setup             =    0.171 sec

 re-compute Schwartz prescreening matrix in partically contracted basis (1) ...done (   0.078 sec)
--------------
SCF ITERATIONS
--------------
ITER       Energy         Delta-E        Max-DP      RMS-DP      [F,P]     Damp
               ***  Starting incremental Fock matrix formation  ***
                      *** Initiating the SOSCF procedure ***
                      *** Re-Reading the Fockian *** 
                      *** Removing any level shift *** 
ITER      Energy       Delta-E        Grad      Rot      Max-DP    RMS-DP
  0    -76.05684532 -76.0568453231  0.002241  0.002241  0.001070  0.000034
               *** Restarting incremental Fock matrix formation ***
  1    -76.05685079  -0.0000054701  0.000341  0.000283  0.000375  0.000015
  2    -76.05685140  -0.0000006086  0.000173  0.000070  0.000238  0.000007
                 **** Energy Check signals convergence ****
              ***Rediagonalizing the Fockian in SOSCF/NRSCF***

               *****************************************************
               *                     SUCCESS                       *
               *           SCF CONVERGED AFTER   3 CYCLES          *
               *****************************************************

Old exchange energy                            =     -8.954534491 Eh
New exchange energy                            =     -8.954526269 Eh
Exchange energy change after final integration =      0.000008222 Eh
Total energy after final integration           =    -76.056843365 Eh
Final COS-X integration done in                =     0.141 sec
Total Energy       :          -76.05684336 Eh           -2069.61192 eV
  Last Energy change         ...   -1.8496e-07  Tolerance :   1.0000e-06
  Last MAX-Density change    ...    8.8818e-16  Tolerance :   1.0000e-05
             **** THE GBW FILE WAS UPDATED (h2o_lw1x-p34_Compound_2.gbw) ****
             **** DENSITY h2o_lw1x-p34_Compound_2.scfp WAS UPDATED ****
             **** ENERGY FILE WAS UPDATED (h2o_lw1x-p34_Compound_2.en.tmp) ****
             **** THE GBW FILE WAS UPDATED (h2o_lw1x-p34_Compound_2.gbw) ****
             **** DENSITY h2o_lw1x-p34_Compound_2.scfp WAS UPDATED ****
----------------
ORBITAL ENERGIES
----------------

  NO   OCC          E(Eh)            E(eV) 
   0   2.0000     -20.555437      -559.3419 
   1   2.0000      -1.343519       -36.5590 
   2   2.0000      -0.707531       -19.2529 
   3   2.0000      -0.576906       -15.6984 
   4   2.0000      -0.504130       -13.7181 
   5   0.0000       0.141846         3.8598 
   6   0.0000       0.203697         5.5429 
   7   0.0000       0.542485        14.7618 
   8   0.0000       0.599806        16.3216 
   9   0.0000       0.668914        18.2021 
  10   0.0000       0.787367        21.4253 
  11   0.0000       0.800058        21.7707 
  12   0.0000       0.805127        21.9086 
  13   0.0000       0.860236        23.4082 
  14   0.0000       0.954797        25.9813 
  15   0.0000       1.134766        30.8786 
  16   0.0000       1.194637        32.5077 
  17   0.0000       1.523298        41.4510 
  18   0.0000       1.559905        42.4472 
  19   0.0000       2.035181        55.3801 
  20   0.0000       2.058279        56.0086 
  21   0.0000       2.064418        56.1757 
  22   0.0000       2.170109        59.0517 
  23   0.0000       2.235449        60.8297 
  24   0.0000       2.587984        70.4226 
  25   0.0000       2.960299        80.5538 
  26   0.0000       3.355953        91.3201 
  27   0.0000       3.489063        94.9422 
  28   0.0000       3.578966        97.3886 
  29   0.0000       3.650501        99.3352 
  30   0.0000       3.797362       103.3315 
  31   0.0000       3.874283       105.4246 
  32   0.0000       3.883778       105.6830 
  33   0.0000       3.959024       107.7305 
  34   0.0000       4.018675       109.3537 
  35   0.0000       4.074587       110.8751 
  36   0.0000       4.187537       113.9487 
  37   0.0000       4.307248       117.2062 
  38   0.0000       4.382349       119.2498 
  39   0.0000       4.574122       124.4682 
  40   0.0000       4.681607       127.3930 
  41   0.0000       4.856395       132.1492 
  42   0.0000       5.143636       139.9654 
  43   0.0000       5.249714       142.8520 
  44   0.0000       5.525819       150.3652 
  45   0.0000       6.043805       164.4603 
  46   0.0000       6.554903       178.3680 
  47   0.0000       6.910764       188.0514 
  48   0.0000       6.936515       188.7522 
  49   0.0000       7.001623       190.5238 
  50   0.0000       7.010270       190.7592 
  51   0.0000       7.050875       191.8641 
  52   0.0000       7.165344       194.9789 
  53   0.0000       7.228291       196.6918 
  54   0.0000       7.453085       202.8088 
  55   0.0000       7.783887       211.8103 
  56   0.0000       8.271442       225.0774 
  57   0.0000      12.809623       348.5675 
Total SCF time: 0 days 0 hours 0 min 1 sec 

Maximum memory used throughout the entire SCF-calculation: 58.4 MB


           ************************************************************
           *        Program running with 5 parallel MPI-processes     *
           *              working on a common directory               *
           ************************************************************

------------------------------------------------------------------------------
                                ORCA  MP2 
------------------------------------------------------------------------------

Freezing NCore=2 chemical core electrons
Initializing SHARK ... done


------------------------------------------------------------------------------
                           ORCA ORBITAL LOCALIZATION
------------------------------------------------------------------------------

Input orbitals are from                  ... h2o_lw1x-p34_Compound_2.gbw
Output orbitals are to                   ... h2o_lw1x-p34_Compound_2.loc
Max. number of iterations                ... 128
Localizations seeded randomly            ... off
Convergence tolerance                    ... 1.000e-06
Treshold for strong local MOs            ... 9.500e-01
Treshold for bond MOs                    ... 8.500e-01
Operator                                 ... 0
Orbital range for localization           ... 1 to 4
Localization criterion                   ... FOSTER-BOYS (AUGMENTED HESSIAN)
Doing the dipole integrals     ... o.k.
Initial value of the localization sum :     0.244209
ITERATION   0 : L=    2.3713332109 DL=  2.13e+00 (AVERGE_DL)=    0.5954164304 
ITERATION   1 : L=    2.4399320228 DL=  6.86e-02 (AVERGE_DL)=    0.1069258403 
ITERATION   2 : L=    2.4538544019 DL=  1.39e-02 (AVERGE_DL)=    0.0481704942 
ITERATION   3 : L=    2.4557996060 DL=  1.95e-03 (AVERGE_DL)=    0.0180055735 
ITERATION   4 : L=    2.4559573896 DL=  1.58e-04 (AVERGE_DL)=    0.0051280859 
ITERATION   5 : L=    2.4559732796 DL=  1.59e-05 (AVERGE_DL)=    0.0016273700 
ITERATION   6 : L=    2.4559747258 DL=  1.45e-06 (AVERGE_DL)=    0.0004909504 
ITERATION   7 : L=    2.4559748583 DL=  1.33e-07 (AVERGE_DL)=    0.0001486263 
LOCALIZATION SUM CONVERGED

------------------------------------------------------
AUGMENTED HESSIAN OPTIMIZATION OF FOSTER-BOYS ORBITALS
------------------------------------------------------

Spin operator:           0
Orbital window:          1 to 4
Number of iterations:    128
Gradient tolerance:      1.000e-06
Number of pairs:         6
Davidson threshold:      2000
Diagonalization method:  LAPACK
Iter:    0   L: 2.4559748583   Grad. norm: 2.129831e-04
   *** Likely close to a maximum now. ***
       Augmented Hessian eigenvalues:  2.60e-08 -1.30e+00 -3.26e+00 -4.74e+00 ... 
Iter:    1   L: 2.4559748713   Grad. norm: 1.251335e-08
LOCALIZATION HAS CONVERGED.

Eigenvalues of the Hessian:
  0 -1.302e+00
  1 -3.257e+00
  2 -4.736e+00
  3 -5.366e+00
  4 -7.238e+00
  5 -9.660e+00


------------------------------------------------------------------------------- 
                    LOCALIZED MOLECULAR ORBITAL COMPOSITIONS                   
------------------------------------------------------------------------------- 

The Mulliken populations for each LMO on each atom are computed
The LMO`s will be ordered according to atom index and type
  (A) Strongly localized MO`s have populations of >=0.950 on one atom
  (B) Two center bond orbitals have populations of >=0.850 on two atoms
  (C) Other MO`s are considered to be `delocalized`

FOUND  -   2 strongly local MO`s
       -   2 two center bond MO`s
       -   0 significantly delocalized MO`s

Rather strongly localized orbitals:
MO   2:   0O  -   0.991493
MO   1:   0O  -   0.991493
Bond-like localized orbitals:
MO   4:   2H  -   0.378644  and   0O  -   0.630032
MO   3:   1H  -   0.378644  and   0O  -   0.630032
Localized MO's were stored in: h2o_lw1x-p34_Compound_2.loc



Calculating differential overlap integrals ... ok
Threshold for domain construction in prescreening: TCutDOPre = 3.0e-02

--------------------------
ELECTRON PAIR PRESCREENING
--------------------------

Dipole-based pair screening          .... used

   TCutDOij = 1.000000e-05
   TCutPre  = 1.000000e-06
   .... Finished loop over pairs
Total time spent in the prescreening                  ...     0.003 sec
sum of pair energies estimated for screened out pairs ...       0.000000000000 Eh

---------------------------
MAP CONSTRUCTION THRESHOLDS
---------------------------
    TCutMKN     ...     1.0e-03
    TCutDO      ...     5.0e-03
    TCutC(MO)   ...     1.0e-03
    TCutC(PAO)  ...     1.0e-03

--------------------------------
LOCAL RI TRANSFORMATION (IAVPAO)
--------------------------------

Orbital window:       1 to 4
Number of PAOs:      58
Basis functions:     58 (22 shells)
Aux. functions:     263 (83 shells)
Use SHARK:           on

Processing maps (0.0 sec)
Average map sizes:
   Aux shells -> MOs               4.0
   Aux shells -> PAOs             58.0
   MOs        -> AO shells        22.0
   PAOs       -> AO shells        22.0

Calculating integrals (0.0 sec, 0.469 MB)
Sorting integrals (0.0 sec, 0.466 MB)
Total time for the integral transformation: 0.0 sec

----------------------------
Local MP2 Energy Calculation
----------------------------
Number of orbital pairs included:     10
Truncation parameters:
    PAOOverlapThresh    =        1.000e-08
    TCutPNO             =        1.000e-09

Spin component scaling                      .... not used
MP2 energy scaling factor                   .... 1.000

Formation of semicanonical amplitudes.
 10% done.
 20% done.
 30% done.
 40% done.
 50% done.
 60% done.
 70% done.
 80% done.
 90% done.
100% done.

Finished the LMP2 guess in 0.0 sec.

Average number of PAOs per pair         58.0
Average number of nrPAOs per pair       53.0
Average number of PNOs per pair         53.0
Average number of AUX  per pair        263.0

Semicanonical MP2 energy:                   -0.254235748000 Eh
Semicanonical MP2 energy in PNO basis:      -0.254235748000 Eh

Initial amplitudes guess done. Entering DLPNO-MP2 iteration loop:
   Max. no of iterations          ...  100
   Energy convergence tolerance   ...    1.0e-06 Eh
   Residual convergence tolerance ...    5.0e-06
   Fock matrix cutoff             ...    1.0e-05 Eh
   Max # vectors in DIIS          ...  7
   Start iteration of DIIS        ...  0
   Levelshift                     ...  2.000e-01 Eh
   Damping before turning on DIIS ...  5.000e-01
   Damping after turning on DIIS  ...  0.000e+00

                           *** Turning on DIIS ***
Iter=   0:  ECORR= -0.258893030634  DE=   4.7e-03 RMAX=   9.4e-03
Iter=   1:  ECORR= -0.261379077239  DE=   2.5e-03 RMAX=   2.0e-03
Iter=   2:  ECORR= -0.261718335141  DE=   3.4e-04 RMAX=   5.1e-04
Iter=   3:  ECORR= -0.261758457905  DE=   4.0e-05 RMAX=   1.6e-04
Iter=   4:  ECORR= -0.261761903290  DE=   3.4e-06 RMAX=   2.3e-05
Iter=   5:  ECORR= -0.261761823621  DE=   8.0e-08 RMAX=   6.8e-06
Iter=   6:  ECORR= -0.261761790499  DE=   3.3e-08 RMAX=   5.8e-07 => CONVERGED

Finished the DLPNO-MP2 iterations in 0.5 sec.

LMP2 correlation energy (all non-screened pairs)      ...     -0.261761790499 Eh
Semicanonical PNO correction to energy                ...      0.000000000000 Eh
Sum of pair energies estimated for screened out pairs ...      0.000000000000 Eh
                                                         -----------------------
Total:                                                ...     -0.261761790499 Eh

------------------------------------------------------
 DLPNO-MP2 CORRELATION ENERGY:      -0.261761790499 Eh
------------------------------------------------------

TIMINGS FOR DLPNO-MP2:
Localization                             ...        0.182 sec
Differential overlap integrals           ...        0.265 sec
Prescreening                             ...        0.113 sec
Map setup                                ...        0.000 sec
(ia|v) trafo                             ...        0.043 sec
Semicanonical amplitudes                 ...        0.009 sec
PNO construction                         ...        0.003 sec
DLPNO-MP2 iterations                     ...        0.457 sec
                                             ----------------
Total time                                          1.441 sec


---------------------------------------
MP2 TOTAL ENERGY:      -76.318605155 Eh
---------------------------------------

Maximum memory used throughout the entire MP2-calculation: 105.5 MB

-------------------------   --------------------
FINAL SINGLE POINT ENERGY       -76.318605155401
-------------------------   --------------------


                            ***************************************
                            *     ORCA property calculations      *
                            ***************************************


  WARNING: The energy has been calculated at the MP2 level but the densities
           used in the property calculations are still SCF densities
           MP2 response densities have not been calculated 
           use %mp2 Density relaxed end
           or  %mp2 Density unrelaxed end

                                    ---------------------
                                    Active property flags
                                    ---------------------
   (+) Dipole Moment


------------------------------------------------------------------------------
                       ORCA ELECTRIC PROPERTIES CALCULATION
------------------------------------------------------------------------------

Dipole Moment Calculation                       ... on
Quadrupole Moment Calculation                   ... off
Polarizability Calculation                      ... off
GBWName                                         ... h2o_lw1x-p34_Compound_2.gbw
Electron density                                ... h2o_lw1x-p34_Compound_2.scfp
The origin for moment calculation is the CENTER OF MASS  = ( 0.000000,  0.000000  0.097958)

-------------
DIPOLE MOMENT
-------------
                                X             Y             Z
Electronic contribution:      0.00000       0.00000       0.18160
Nuclear contribution   :      0.00000       0.00000      -0.97959
                        -----------------------------------------
Total Dipole Moment    :      0.00000       0.00000      -0.79799
                        -----------------------------------------
Magnitude (a.u.)       :      0.79799
Magnitude (Debye)      :      2.02832



--------------------
Rotational spectrum 
--------------------
 
Rotational constants in cm-1:    27.191958    14.467615     9.443274 
Rotational constants in MHz : 815194.382788 433728.186196 283102.243345 

 Dipole components along the rotational axes: 
x,y,z [a.u.] :     0.000000    -0.797988     0.000000 
x,y,z [Debye]:     0.000000    -2.028325     0.000000 

 

Timings for individual modules:

Sum of individual times         ...        4.185 sec (=   0.070 min)
GTO integral calculation        ...        0.610 sec (=   0.010 min)  14.6 %
SCF iterations                  ...        1.619 sec (=   0.027 min)  38.7 %
MP2 module                      ...        1.956 sec (=   0.033 min)  46.7 %


################################################################################


                                COMPOUND JOB  3 
Basename: h2o_lw1x-p34_Compound_3
NOTE: please remember that MaxCore and PAL settings will be ignored.

################################################################################

================================================================================
                                       INPUT FILE
================================================================================
NAME = h2o_lw1x-p34_Compound_3.inp
|  1>     ! DefGrid3 RIJCOSX TightPNO DLPNO-CCSD(T1)-F12 MiniPrint NoPop
|  2>     %Method
|  3>       NewNCore Ga 0 End
|  4>       NewNCore Ge 0 End
|  5>       NewNCore As 0 End
|  6>       NewNCore Se 0 End
|  7>       NewNCore Br 0 End
|  8>       NewNCore Kr 0 End
|  9>       NewNCore In 0 End
| 10>       NewNCore Sn 0 End
| 11>       NewNCore Sb 0 End
| 12>       NewNCore Te 0 End
| 13>       NewNCore I  0 End
| 14>       NewNCore Xe 0 End
| 15>     End
| 16>     %Basis
| 17>       Basis         "maug-cc-pV(D+d)Z"
| 18>       AuxJ          "AutoAux"
| 19>       AuxC          "AutoAux"
| 20>       CABS          "AutoAux"
| 21>       NewECP     Ga "SK-MCDHF-RSC" End
| 22>       NewGTO     Ga "cc-pWCVDZ-PP"
| 23>                     S   1
| 24>                     1         0.0222000              1.0000000
| 25>                     P   1
| 26>                     1         0.0145000              1.0000000
| 27>                     End
| 28>       NewAuxjGTO Ga "AutoAux" End
| 29>       NewAuxcGTO Ga "AutoAux" End
| 30>       NewCabsGTO Ga "AutoAux" End
| 31>       NewECP     Ge "SK-MCDHF-RSC" End
| 32>       NewGTO     Ge "cc-pWCVDZ-PP"
| 33>                     S   1
| 34>                     1         0.0310000              1.0000000
| 35>                     P   1
| 36>                     1         0.0232000              1.0000000
| 37>                     End
| 38>       NewAuxjGTO Ge "AutoAux" End
| 39>       NewAuxcGTO Ge "AutoAux" End
| 40>       NewCabsGTO Ge "AutoAux" End
| 41>       NewECP     As "SK-MCDHF-RSC" End
| 42>       NewGTO     As "cc-pWCVDZ-PP"
| 43>                     S   1
| 44>                     1         0.0370000              1.0000000
| 45>                     P   1
[...]
Angular Grid (max. ang.)         AngularGrid ... 4 (Lebedev-302)
Angular grid pruning method      GridPruning ... 4 (adaptive)
Weight generation scheme         WeightScheme... Becke
Basis function cutoff            BFCut       ... 1.0000e-10
Integration weight cutoff        WCut        ... 1.0000e-14
Angular grids for H and He will be reduced by one unit
Partially contracted basis set               ... on
Rotationally invariant grid construction     ... off

Total number of grid points                  ...    15748
Total number of batches                      ...      247
Average number of points per batch           ...       63
Average number of grid points per atom       ...     5249
UseSFitting                                  ... on

Time for X-Grid setup             =    0.137 sec

 re-compute Schwartz prescreening matrix in partically contracted basis (1) ...done (   0.078 sec)
--------------
SCF ITERATIONS
--------------
ITER       Energy         Delta-E        Max-DP      RMS-DP      [F,P]     Damp
               ***  Starting incremental Fock matrix formation  ***
                      *** Initiating the SOSCF procedure ***
                      *** Re-Reading the Fockian *** 
                      *** Removing any level shift *** 
ITER      Energy       Delta-E        Grad      Rot      Max-DP    RMS-DP
  0    -76.05696626 -76.0569662611  0.000005  0.000005  0.000004  0.000000
               *** Restarting incremental Fock matrix formation ***
                 **** Energy Check signals convergence ****
              ***Rediagonalizing the Fockian in SOSCF/NRSCF***

               *****************************************************
               *                     SUCCESS                       *
               *           SCF CONVERGED AFTER   1 CYCLES          *
               *****************************************************

Old exchange energy                            =     -8.954824880 Eh
New exchange energy                            =     -8.954833991 Eh
Exchange energy change after final integration =     -0.000009111 Eh
Total energy after final integration           =    -76.056975372 Eh
Final COS-X integration done in                =     0.168 sec
Total Energy       :          -76.05697537 Eh           -2069.61552 eV
  Last Energy change         ...   -1.0404e-10  Tolerance :   1.0000e-06
  Last MAX-Density change    ...    1.1102e-16  Tolerance :   1.0000e-05
             **** THE GBW FILE WAS UPDATED (h2o_lw1x-p34_Compound_6.gbw) ****
             **** DENSITY h2o_lw1x-p34_Compound_6.scfp WAS UPDATED ****
             **** ENERGY FILE WAS UPDATED (h2o_lw1x-p34_Compound_6.en.tmp) ****
             **** THE GBW FILE WAS UPDATED (h2o_lw1x-p34_Compound_6.gbw) ****
             **** DENSITY h2o_lw1x-p34_Compound_6.scfp WAS UPDATED ****
----------------
ORBITAL ENERGIES
----------------

  NO   OCC          E(Eh)            E(eV) 
   0   2.0000     -20.555028      -559.3308 
   1   2.0000      -1.343527       -36.5592 
   2   2.0000      -0.707618       -19.2553 
   3   2.0000      -0.577086       -15.7033 
   4   2.0000      -0.504253       -13.7214 
   5   0.0000       0.140235         3.8160 
   6   0.0000       0.203682         5.5425 
   7   0.0000       0.542161        14.7530 
   8   0.0000       0.598869        16.2961 
   9   0.0000       0.666119        18.1260 
  10   0.0000       0.782259        21.2864 
  11   0.0000       0.799251        21.7487 
  12   0.0000       0.804499        21.8915 
  13   0.0000       0.860209        23.4075 
  14   0.0000       0.954742        25.9799 
  15   0.0000       1.053039        28.6546 
  16   0.0000       1.194405        32.5014 
  17   0.0000       1.477243        40.1978 
  18   0.0000       1.517009        41.2799 
  19   0.0000       2.030009        55.2394 
  20   0.0000       2.032796        55.3152 
  21   0.0000       2.059087        56.0306 
  22   0.0000       2.120272        57.6955 
  23   0.0000       2.213236        60.2252 
  24   0.0000       2.529617        68.8344 
  25   0.0000       2.938024        79.9477 
  26   0.0000       3.354682        91.2855 
  27   0.0000       3.487030        94.8869 
  28   0.0000       3.578945        97.3880 
  29   0.0000       3.648895        99.2915 
  30   0.0000       3.700259       100.6892 
  31   0.0000       3.872343       105.3718 
  32   0.0000       3.872902       105.3870 
  33   0.0000       3.958634       107.7199 
  34   0.0000       3.998799       108.8129 
  35   0.0000       4.020465       109.4024 
  36   0.0000       4.046240       110.1038 
  37   0.0000       4.221449       114.8715 
  38   0.0000       4.306669       117.1904 
  39   0.0000       4.544685       123.6672 
  40   0.0000       4.577153       124.5507 
  41   0.0000       4.854318       132.0927 
  42   0.0000       4.958969       134.9404 
  43   0.0000       5.125743       139.4785 
  44   0.0000       5.382985       146.4785 
  45   0.0000       5.542548       150.8204 
  46   0.0000       6.043239       164.4449 
  47   0.0000       6.645413       180.8309 
  48   0.0000       6.902041       187.8141 
  49   0.0000       6.935769       188.7319 
  50   0.0000       6.991387       190.2453 
  51   0.0000       6.994719       190.3360 
  52   0.0000       7.098452       193.1587 
  53   0.0000       7.227567       196.6721 
  54   0.0000       7.432031       202.2359 
  55   0.0000       7.764295       211.2772 
  56   0.0000       8.226869       223.8645 
  57   0.0000       8.452234       229.9970 
  58   0.0000      19.001740       517.0636 
  59   0.0000      19.439110       528.9651 
  60   0.0000      19.821460       539.3694 
  61   0.0000      22.387597       609.1975 
  62   0.0000      30.114736       819.4636 
  63   0.0000      30.120720       819.6265 
  64   0.0000      30.180537       821.2542 
  65   0.0000      30.366511       826.3148 
  66   0.0000      30.641993       833.8110 
  67   0.0000      90.411593      2460.2245 
  68   0.0000      90.770159      2469.9816 
  69   0.0000      91.023826      2476.8842 
  70   0.0000     107.515205      2925.6375 
Total SCF time: 0 days 0 hours 0 min 0 sec 

Maximum memory used throughout the entire SCF-calculation: 58.7 MB


           ************************************************************
           *        Program running with 5 parallel MPI-processes     *
           *              working on a common directory               *
           ************************************************************

------------------------------------------------------------------------------
                                ORCA  MP2 
------------------------------------------------------------------------------

Freezing NCore=0 chemical core electrons
Initializing SHARK ... done


------------------------------------------------------------------------------
                           ORCA ORBITAL LOCALIZATION
------------------------------------------------------------------------------

Input orbitals are from                  ... h2o_lw1x-p34_Compound_6.gbw
Output orbitals are to                   ... h2o_lw1x-p34_Compound_6.loc
Max. number of iterations                ... 128
Localizations seeded randomly            ... off
Convergence tolerance                    ... 1.000e-06
Treshold for strong local MOs            ... 9.500e-01
Treshold for bond MOs                    ... 8.500e-01
Operator                                 ... 0
Orbital range for localization           ... 0 to 4
Localization criterion                   ... FOSTER-BOYS (AUGMENTED HESSIAN)
Doing the dipole integrals     ... o.k.
Initial value of the localization sum :     0.288044
ITERATION   0 : L=    2.4302077996 DL=  2.14e+00 (AVERGE_DL)=    0.4628351896 
ITERATION   1 : L=    2.4997323209 DL=  6.95e-02 (AVERGE_DL)=    0.0833813656 
ITERATION   2 : L=    2.5139804219 DL=  1.42e-02 (AVERGE_DL)=    0.0377466569 
ITERATION   3 : L=    2.5159808120 DL=  2.00e-03 (AVERGE_DL)=    0.0141435147 
ITERATION   4 : L=    2.5161472837 DL=  1.66e-04 (AVERGE_DL)=    0.0040800947 
ITERATION   5 : L=    2.5161643569 DL=  1.71e-05 (AVERGE_DL)=    0.0013066425 
ITERATION   6 : L=    2.5161659386 DL=  1.58e-06 (AVERGE_DL)=    0.0003977068 
ITERATION   7 : L=    2.5161660856 DL=  1.47e-07 (AVERGE_DL)=    0.0001212474 
LOCALIZATION SUM CONVERGED

------------------------------------------------------
AUGMENTED HESSIAN OPTIMIZATION OF FOSTER-BOYS ORBITALS
------------------------------------------------------

Spin operator:           0
Orbital window:          0 to 4
Number of iterations:    128
Gradient tolerance:      1.000e-06
Number of pairs:         10
Davidson threshold:      2000
Diagonalization method:  LAPACK
Iter:    0   L: 2.5161660856   Grad. norm: 2.249046e-04
   *** Likely close to a maximum now. ***
       Augmented Hessian eigenvalues:  2.93e-08 -9.21e-01 -1.32e+00 -1.37e+00 ... 
Iter:    1   L: 2.5161661003   Grad. norm: 1.415605e-08
LOCALIZATION HAS CONVERGED.

Eigenvalues of the Hessian:
  0 -9.206e-01
  1 -1.316e+00
  2 -1.371e+00
  3 -3.266e+00
  4 -3.319e+00
  5 -4.722e+00
  6 -4.750e+00
  7 -5.397e+00
  8 -7.270e+00
  9 -9.688e+00


------------------------------------------------------------------------------- 
                    LOCALIZED MOLECULAR ORBITAL COMPOSITIONS                   
------------------------------------------------------------------------------- 

The Mulliken populations for each LMO on each atom are computed
The LMO`s will be ordered according to atom index and type
  (A) Strongly localized MO`s have populations of >=0.950 on one atom
  (B) Two center bond orbitals have populations of >=0.850 on two atoms
  (C) Other MO`s are considered to be `delocalized`

FOUND  -   3 strongly local MO`s
       -   2 two center bond MO`s
       -   0 significantly delocalized MO`s

Rather strongly localized orbitals:
MO   2:   0O  -   0.989379
MO   1:   0O  -   0.989379
MO   0:   0O  -   1.000106
Bond-like localized orbitals:
MO   4:   2H  -   0.380318  and   0O  -   0.628098
MO   3:   1H  -   0.380318  and   0O  -   0.628098
Localized MO's were stored in: h2o_lw1x-p34_Compound_6.loc



Calculating differential overlap integrals ... ok
Threshold for domain construction in prescreening: TCutDOPre = 3.0e-02

--------------------------
ELECTRON PAIR PRESCREENING
--------------------------

Dipole-based pair screening          .... used

   TCutDOij = 1.000000e-05
   TCutPre  = 1.000000e-06
   .... Finished loop over pairs
Total time spent in the prescreening                  ...     0.005 sec
sum of pair energies estimated for screened out pairs ...       0.000000000000 Eh

---------------------------
MAP CONSTRUCTION THRESHOLDS
---------------------------
    TCutMKN     ...     1.0e-03
    TCutDO      ...     5.0e-03
    TCutC(MO)   ...     1.0e-03
    TCutC(PAO)  ...     1.0e-03

--------------------------------
LOCAL RI TRANSFORMATION (IAVPAO)
--------------------------------

Orbital window:       0 to 4
Number of PAOs:      71
Basis functions:     71 (27 shells)
Aux. functions:     329 (95 shells)
Use SHARK:           on

Processing maps (0.0 sec)
Average map sizes:
   Aux shells -> MOs               5.0
   Aux shells -> PAOs             71.0
   MOs        -> AO shells        27.0
   PAOs       -> AO shells        27.0

Calculating integrals (0.0 sec, 0.895 MB)
Sorting integrals (0.0 sec, 0.891 MB)
Total time for the integral transformation: 0.0 sec

----------------------------
Local MP2 Energy Calculation
----------------------------
Number of orbital pairs included:     15
Truncation parameters:
    PAOOverlapThresh    =        1.000e-08
    TCutPNO             =        1.000e-09

Spin component scaling                      .... not used
MP2 energy scaling factor                   .... 1.000

Formation of semicanonical amplitudes.
 10% done.
 20% done.
 30% done.
 40% done.
 50% done.
 60% done.
 70% done.
 80% done.
 90% done.
100% done.

Finished the LMP2 guess in 0.0 sec.

Average number of PAOs per pair         71.0
Average number of nrPAOs per pair       66.0
Average number of PNOs per pair         56.5
Average number of AUX  per pair        322.1

Semicanonical MP2 energy:                   -0.306899744711 Eh
Semicanonical MP2 energy in PNO basis:      -0.306898362216 Eh

Initial amplitudes guess done. Entering DLPNO-MP2 iteration loop:
   Max. no of iterations          ...  100
   Energy convergence tolerance   ...    1.0e-06 Eh
   Residual convergence tolerance ...    5.0e-06
   Fock matrix cutoff             ...    1.0e-05 Eh
   Max # vectors in DIIS          ...  7
   Start iteration of DIIS        ...  0
   Levelshift                     ...  2.000e-01 Eh
   Damping before turning on DIIS ...  5.000e-01
   Damping after turning on DIIS  ...  0.000e+00

                           *** Turning on DIIS ***
Iter=   0:  ECORR= -0.312687281351  DE=   5.8e-03 RMAX=   4.3e-02
Iter=   1:  ECORR= -0.317309859480  DE=   4.6e-03 RMAX=   1.1e-02
Iter=   2:  ECORR= -0.317936002595  DE=   6.3e-04 RMAX=   2.6e-03
Iter=   3:  ECORR= -0.318084437027  DE=   1.5e-04 RMAX=   5.0e-04
Iter=   4:  ECORR= -0.318093576892  DE=   9.1e-06 RMAX=   5.1e-05
Iter=   5:  ECORR= -0.318093525298  DE=   5.2e-08 RMAX=   1.8e-05
Iter=   6:  ECORR= -0.318093341582  DE=   1.8e-07 RMAX=   2.0e-06 => CONVERGED

Finished the DLPNO-MP2 iterations in 0.6 sec.

LMP2 correlation energy (all non-screened pairs)      ...     -0.318093341582 Eh
Semicanonical PNO correction to energy                ...     -0.000001382495 Eh
Sum of pair energies estimated for screened out pairs ...      0.000000000000 Eh
                                                         -----------------------
Total:                                                ...     -0.318094724076 Eh

------------------------------------------------------
 DLPNO-MP2 CORRELATION ENERGY:      -0.318094724076 Eh
------------------------------------------------------

TIMINGS FOR DLPNO-MP2:
Localization                             ...        0.184 sec
Differential overlap integrals           ...        0.292 sec
Prescreening                             ...        0.118 sec
Map setup                                ...        0.000 sec
(ia|v) trafo                             ...        0.050 sec
Semicanonical amplitudes                 ...        0.020 sec
PNO construction                         ...        0.005 sec
DLPNO-MP2 iterations                     ...        0.568 sec
                                             ----------------
Total time                                          1.605 sec


---------------------------------------
MP2 TOTAL ENERGY:      -76.375070096 Eh
---------------------------------------

Maximum memory used throughout the entire MP2-calculation: 105.9 MB

-------------------------   --------------------
FINAL SINGLE POINT ENERGY       -76.375070096034
-------------------------   --------------------


                            ***************************************
                            *     ORCA property calculations      *
                            ***************************************


  WARNING: The energy has been calculated at the MP2 level but the densities
           used in the property calculations are still SCF densities
           MP2 response densities have not been calculated 
           use %mp2 Density relaxed end
           or  %mp2 Density unrelaxed end

                                    ---------------------
                                    Active property flags
                                    ---------------------
   (+) Dipole Moment


------------------------------------------------------------------------------
                       ORCA ELECTRIC PROPERTIES CALCULATION
------------------------------------------------------------------------------

Dipole Moment Calculation                       ... on
Quadrupole Moment Calculation                   ... off
Polarizability Calculation                      ... off
GBWName                                         ... h2o_lw1x-p34_Compound_6.gbw
Electron density                                ... h2o_lw1x-p34_Compound_6.scfp
The origin for moment calculation is the CENTER OF MASS  = ( 0.000000,  0.000000  0.097958)

-------------
DIPOLE MOMENT
-------------
                                X             Y             Z
Electronic contribution:      0.00000       0.00000       0.18162
Nuclear contribution   :      0.00000       0.00000      -0.97959
                        -----------------------------------------
Total Dipole Moment    :      0.00000       0.00000      -0.79797
                        -----------------------------------------
Magnitude (a.u.)       :      0.79797
Magnitude (Debye)      :      2.02828



--------------------
Rotational spectrum 
--------------------
 
Rotational constants in cm-1:    27.191958    14.467615     9.443274 
Rotational constants in MHz : 815194.382788 433728.186196 283102.243345 

 Dipole components along the rotational axes: 
x,y,z [a.u.] :     0.000000    -0.797970     0.000000 
x,y,z [Debye]:     0.000000    -2.028277     0.000000 

 

Timings for individual modules:

Sum of individual times         ...        4.117 sec (=   0.069 min)
GTO integral calculation        ...        0.604 sec (=   0.010 min)  14.7 %
SCF iterations                  ...        1.404 sec (=   0.023 min)  34.1 %
MP2 module                      ...        2.110 sec (=   0.035 min)  51.2 %
================================================================================

----- Orbital basis set information -----
Your calculation utilizes the basis: def2-SVP
   F. Weigend and R. Ahlrichs, Phys. Chem. Chem. Phys. 7, 3297 (2005).



----------------------------------------------------------------------------------------------
                                        COMPOUND BLOCK                                        
                                     SUMMARY OF VARIABLES                                     
----------------------------------------------------------------------------------------------

Variable Name                                           Value             Evaluation String
-------------                                           -----             -----------------
HF_DZ                                    |             -76.06154802    |  
EC_DZ                                    |              -0.28344318    |  
CC_DZ                                    |              -0.27972820    |  EC_DZ-T_DZ
T_DZ                                     |              -0.00371498    |  
HF_TZ                                    |             -76.06534026    |  
EC_TZ                                    |              -0.29882691    |  
CC_TZ                                    |              -0.29082895    |  EC_TZ-T_TZ
T_TZ                                     |              -0.00799796    |  
HF_CBS                                   |             -76.06591539    |  HF_TZ-(HF_TZ-HF_DZ)*3^-5/(3^-5-2^-5)
CC_CBS                                   |              -0.29273128    |  CC_TZ-(CC_TZ-CC_DZ)*3^-4.7405/(3^-4.7405-2^-4.7405)
T_CBS                                    |              -0.01121428    |  T_TZ-(T_TZ-T_DZ)*3^-2.0879/(3^-2.0879-2^-2.0879)
MP_FC                                    |             -76.32376973    |  
MP_FU                                    |             -76.37507010    |  
MP_CV                                    |              -0.05130037    |  MP_FU-MP_FC
MP_PP                                    |             -76.31860516    |  
MP_DK                                    |             -76.37051844    |  
MP_REL                                   |              -0.05191328    |  MP_DK-MP_PP
LW1X                                     |             -76.47307460    |  HF_CBS+CC_CBS+T_CBS+MP_CV+MP_REL
                             ****ORCA TERMINATED NORMALLY****
TOTAL RUN TIME: 0 days 0 hours 1 minutes 23 seconds 480 msec
