
                                 *****************
                                 * O   R   C   A *
                                 *****************

                                            #,                                       
                                            ###                                      
                                            ####                                     
                                            #####                                    
                                            ######                                   
                                           ########,                                 
                                     ,,################,,,,,                         
                               ,,#################################,,                 
                          ,,##########################################,,             
                       ,#########################################, ''#####,          
                    ,#############################################,,   '####,        
                  ,##################################################,,,,####,       
                ,###########''''           ''''###############################       
              ,#####''   ,,,,##########,,,,          '''####'''          '####       
            ,##' ,,,,###########################,,,                        '##       
           ' ,,###''''                  '''############,,,                           
         ,,##''                                '''############,,,,        ,,,,,,###''
      ,#''                                            '''#######################'''  
     '                                                          ''''####''''         
             ,#######,   #######,   ,#######,      ##                                
            ,#'     '#,  ##    ##  ,#'     '#,    #''#        ######   ,####,        
            ##       ##  ##   ,#'  ##            #'  '#       #        #'  '#        
            ##       ##  #######   ##           ,######,      #####,   #    #        
            '#,     ,#'  ##    ##  '#,     ,#' ,#      #,         ##   #,  ,#        
             '#######'   ##     ##  '#######'  #'      '#     #####' # '####'        



                  #######################################################
                  #                        -***-                        #
                  #          Department of theory and spectroscopy      #
                  #    Directorship and core code : Frank Neese         #
                  #        Max Planck Institute fuer Kohlenforschung    #
                  #                Kaiser Wilhelm Platz 1               #
                  #                 D-45470 Muelheim/Ruhr               #
                  #                      Germany                        #
                  #                                                     #
                  #                  All rights reserved                #
                  #                        -***-                        #
                  #######################################################


                         Program Version 5.0.1 -  RELEASE  -


 With contributions from (in alphabetic order):
   Daniel Aravena         : Magnetic Suceptibility
   Michael Atanasov       : Ab Initio Ligand Field Theory (pilot matlab implementation)
   Alexander A. Auer      : GIAO ZORA, VPT2 properties, NMR spectrum
   Ute Becker             : Parallelization
   Giovanni Bistoni       : ED, misc. LED, open-shell LED, HFLD
   Martin Brehm           : Molecular dynamics
   Dmytro Bykov           : SCF Hessian
   Vijay G. Chilkuri      : MRCI spin determinant printing, contributions to CSF-ICE
   Dipayan Datta          : RHF DLPNO-CCSD density
   Achintya Kumar Dutta   : EOM-CC, STEOM-CC
   Dmitry Ganyushin       : Spin-Orbit,Spin-Spin,Magnetic field MRCI
   Miquel Garcia          : C-PCM and meta-GGA Hessian, CC/C-PCM, Gaussian charge scheme
   Yang Guo               : DLPNO-NEVPT2, F12-NEVPT2, CIM, IAO-localization
   Andreas Hansen         : Spin unrestricted coupled pair/coupled cluster methods
   Benjamin Helmich-Paris : MC-RPA, TRAH-SCF, COSX integrals
   Lee Huntington         : MR-EOM, pCC
   Robert Izsak           : Overlap fitted RIJCOSX, COSX-SCS-MP3, EOM
   Marcus Kettner         : VPT2
   Christian Kollmar      : KDIIS, OOCD, Brueckner-CCSD(T), CCSD density, CASPT2, CASPT2-K
   Simone Kossmann        : Meta GGA functionals, TD-DFT gradient, OOMP2, MP2 Hessian
   Martin Krupicka        : Initial AUTO-CI
   Lucas Lang             : DCDCAS
   Marvin Lechner         : AUTO-CI (C++ implementation), FIC-MRCC
   Dagmar Lenk            : GEPOL surface, SMD
   Dimitrios Liakos       : Extrapolation schemes; Compound Job, initial MDCI parallelization
   Dimitrios Manganas     : Further ROCIS development; embedding schemes
   Dimitrios Pantazis     : SARC Basis sets
   Anastasios Papadopoulos: AUTO-CI, single reference methods and gradients
   Taras Petrenko         : DFT Hessian,TD-DFT gradient, ASA, ECA, R-Raman, ABS, FL, XAS/XES, NRVS
   Peter Pinski           : DLPNO-MP2, DLPNO-MP2 Gradient
   Christoph Reimann      : Effective Core Potentials
   Marius Retegan         : Local ZFS, SOC
   Christoph Riplinger    : Optimizer, TS searches, QM/MM, DLPNO-CCSD(T), (RO)-DLPNO pert. Triples
   Tobias Risthaus        : Range-separated hybrids, TD-DFT gradient, RPA, STAB
   Michael Roemelt        : Original ROCIS implementation
   Masaaki Saitow         : Open-shell DLPNO-CCSD energy and density
   Barbara Sandhoefer     : DKH picture change effects
   Avijit Sen             : IP-ROCIS
   Kantharuban Sivalingam : CASSCF convergence, NEVPT2, FIC-MRCI
   Bernardo de Souza      : ESD, SOC TD-DFT
   Georgi Stoychev        : AutoAux, RI-MP2 NMR, DLPNO-MP2 response
   Willem Van den Heuvel  : Paramagnetic NMR
   Boris Wezisla          : Elementary symmetry handling
   Frank Wennmohs         : Technical directorship


 We gratefully acknowledge several colleagues who have allowed us to
 interface, adapt or use parts of their codes:
   Stefan Grimme, W. Hujo, H. Kruse, P. Pracht,  : VdW corrections, initial TS optimization,
                  C. Bannwarth, S. Ehlert          DFT functionals, gCP, sTDA/sTD-DF
   Ed Valeev, F. Pavosevic, A. Kumar             : LibInt (2-el integral package), F12 methods
   Garnet Chan, S. Sharma, J. Yang, R. Olivares  : DMRG
   Ulf Ekstrom                                   : XCFun DFT Library
   Mihaly Kallay                                 : mrcc  (arbitrary order and MRCC methods)
   Jiri Pittner, Ondrej Demel                    : Mk-CCSD
   Frank Weinhold                                : gennbo (NPA and NBO analysis)
   Christopher J. Cramer and Donald G. Truhlar   : smd solvation model
   Lars Goerigk                                  : TD-DFT with DH, B97 family of functionals
   V. Asgeirsson, H. Jonsson                     : NEB implementation
   FAccTs GmbH                                   : IRC, NEB, NEB-TS, DLPNO-Multilevel, CI-OPT
                                                   MM, QMMM, 2- and 3-layer-ONIOM, Crystal-QMMM,
                                                   LR-CPCM, SF, NACMEs, symmetry and pop. for TD-DFT,
                                                   nearIR, NL-DFT gradient (VV10), updates on ESD,
                                                   ML-optimized integration grids
   S Lehtola, MJT Oliveira, MAL Marques          : LibXC Library
   Liviu Ungur et al                             : ANISO software


 Your calculation uses the libint2 library for the computation of 2-el integrals
 For citations please refer to: http://libint.valeyev.net

 Your ORCA version has been built with support for libXC version: 5.1.0
 For citations please refer to: https://tddft.org/programs/libxc/

 This ORCA versions uses:
   CBLAS   interface :  Fast vector & matrix operations
   LAPACKE interface :  Fast linear algebra routines
   SCALAPACK package :  Parallel linear algebra routines
   Shared memory     :  Shared parallel matrices
   BLAS/LAPACK       :  OpenBLAS 0.3.15  USE64BITINT DYNAMIC_ARCH NO_AFFINITY SkylakeX SINGLE_THREADED
        Core in use  :  SkylakeX
   Copyright (c) 2011-2014, The OpenBLAS Project




################################################################################


                                COMPOUND JOB MainJOB 
Basename: ch3f_lw1x-jun_Compound_0

################################################################################

================================================================================
                                       INPUT FILE
================================================================================
NAME = ch3f_lw1x-jun_Compound_0.inp
|  1> %Maxcore 1000
|  2>  %Pal nprocs 6 End
|  3>  
|  4>  * xyz 0 1
|  5>  F        0.000000    0.000000    0.750386 
|  6>  C        0.000000    0.000000   -0.629363 
|  7>  H       -1.026909    0.000000   -0.992430 
|  8>  H        0.513454    0.889329   -0.992430 
|  9>  H        0.513454   -0.889329   -0.992430 
| 10>  *
| 11>  
| 12> 
| 13>                          ****END OF INPUT****
================================================================================
================================================================================

----- Orbital basis set information -----
Your calculation utilizes the basis: def2-SVP
   F. Weigend and R. Ahlrichs, Phys. Chem. Chem. Phys. 7, 3297 (2005).



################################################################################


                                COMPOUND JOB  1 
Basename: ch3f_lw1x-jun_Compound_1
NOTE: please remember that MaxCore and PAL settings will be ignored.

################################################################################

================================================================================
                                       INPUT FILE
================================================================================
NAME = ch3f_lw1x-jun_Compound_1.inp
|  1>     ! DefGrid3 RIJCOSX TightPNO DLPNO-CCSD(T1)-F12 MiniPrint NoPop
|  2>     %Basis
|  3>       Basis "maug-cc-pV(D+d)Z"
|  4>       AuxJ  "AutoAux"
|  5>       AuxC  "AutoAux"
|  6>       CABS  "AutoAux"
|  7>     End
|  8> 
|  9>                          ****END OF INPUT****
================================================================================
Warning! AutoAux has not been tested for CABS - use at your own risk!
================================================================================

----- Orbital basis set information -----
Your calculation utilizes the basis: jun-cc-pV(D+d)Z 
  E. Papajak, D. G. Truhlar, J. Chem. Theory Comput. 7, 10-18 (2011).

----- AuxJ basis set information -----
Your calculation utilizes the AutoAux generation procedure.
  G. L. Stoychev, A. A. Auer, F. Neese, J. Chem. Theory Comput. 13, 554 (2017)

----- AuxC basis set information -----
Your calculation utilizes the AutoAux generation procedure.
  G. L. Stoychev, A. A. Auer, F. Neese, J. Chem. Theory Comput. 13, 554 (2017)

----- CABS information -----
Your calculation utilizes the AutoAux generation procedure.
  G. L. Stoychev, A. A. Auer, F. Neese, J. Chem. Theory Comput. 13, 554 (2017)


                    <<< The CABS basis set will be decontracted >>>

================================================================================
                                        WARNINGS
                       Please study these warnings very carefully!
================================================================================


WARNING: Post HF methods need fully converged wavefunctions
  ===> : Setting SCFConvForced true
         You can overwrite this default with %scf ConvForced false 


WARNING: MDCI localization with Augmented Hessian Foster-Boys
  ===> : Switching off randomization!

INFO   : the flag for use of the SHARK integral package has been found!


                       ****************************
                       * Single Point Calculation *
                       ****************************

---------------------------------
CARTESIAN COORDINATES (ANGSTROEM)
---------------------------------
  F      0.000000    0.000000    0.750386
  C      0.000000    0.000000   -0.629363
  H     -1.026909    0.000000   -0.992430
  H      0.513454    0.889329   -0.992430
  H      0.513454   -0.889329   -0.992430

----------------------------
CARTESIAN COORDINATES (A.U.)
----------------------------
  NO LB      ZA    FRAG     MASS         X           Y           Z
   0 F     9.0000    0    18.998    0.000000    0.000000    1.418024
   1 C     6.0000    0    12.011    0.000000    0.000000   -1.189324
   2 H     1.0000    0     1.008   -1.940577    0.000000   -1.875421
   3 H     1.0000    0     1.008    0.970287    1.680588   -1.875421
   4 H     1.0000    0     1.008    0.970287   -1.680588   -1.875421



           ************************************************************
           *        Program running with 6 parallel MPI-processes     *
           *              working on a common directory               *
           ************************************************************
------------------------------------------------------------------------------
                   ___                                                        
                  /   \      - P O W E R E D   B Y -                         
                 /     \                                                     
                 |  |  |   _    _      __       _____    __    __             
                 |  |  |  | |  | |    /  \     |  _  \  |  |  /  |          
                  \  \/   | |  | |   /    \    | | | |  |  | /  /          
                 / \  \   | |__| |  /  /\  \   | |_| |  |  |/  /          
                |  |  |   |  __  | /  /__\  \  |    /   |      \           
                |  |  |   | |  | | |   __   |  |    \   |  |\   \          
                \     /   | |  | | |  |  |  |  | |\  \  |  | \   \       
                 \___/    |_|  |_| |__|  |__|  |_| \__\ |__|  \__/        
                                                                              
                      - O R C A' S   B I G   F R I E N D -                    
                                      &                                       
                       - I N T E G R A L  F E E D E R -                       
                                                                              
 v1 FN, 2020, v2 2021                                                         
------------------------------------------------------------------------------


Reading SHARK input file ch3f_lw1x-jun_Compound_1.SHARKINP.tmp ... ok
----------------------
SHARK INTEGRAL PACKAGE
----------------------

Number of atoms                             ...      5
Number of basis functions                   ...     51
Number of shells                            ...     25
Maximum angular momentum                    ...      2
Integral batch strategy                     ... SHARK/LIBINT Hybrid
RI-J (if used) integral strategy            ... SPLIT-RIJ (Revised 2003 algorithm where possible)
Printlevel                                  ...      1
Contraction scheme used                     ... SEGMENTED contraction
Coulomb Range Separation                    ... NOT USED
Exchange Range Separation                   ... NOT USED
Finite Nucleus Model                        ... NOT USED
Auxiliary Coulomb fitting basis             ... AVAILABLE
   # of basis functions in Aux-J            ...    325
   # of shells in Aux-J                     ...    123
   Maximum angular momentum in Aux-J        ...      3
Auxiliary J/K fitting basis                 ... NOT available
Auxiliary Correlation fitting basis         ... AVAILABLE
   # of basis functions in Aux-C            ...    325
   # of shells in Aux-C                     ...    123
   Maximum angular momentum in Aux-C        ...      3
Auxiliary 'external' fitting basis          ... NOT available
Integral threshold                          ...     1.000000e-10
Primitive cut-off                           ...     1.000000e-11
Primitive pair pre-selection threshold      ...     1.000000e-11

Calculating pre-screening integrals         ... done (  0.0 sec) Dimension = 25
Organizing shell pair data                  ... done (  0.0 sec)
Shell pair information
Total number of shell pairs                 ...       325
Shell pairs after pre-screening             ...       325
Total number of primitive shell pairs       ...      2143
Primitive shell pairs kept                  ...      1838
          la=0 lb=0:    105 shell pairs
          la=1 lb=0:    126 shell pairs
          la=1 lb=1:     45 shell pairs
          la=2 lb=0:     28 shell pairs
          la=2 lb=1:     18 shell pairs
          la=2 lb=2:      3 shell pairs

Calculating one electron integrals          ... done (  0.0 sec)
Calculating RI/J V-Matrix + Cholesky decomp.... done (  0.0 sec)
Calculating RI/C V-Matrix + Cholesky decomp.... done (  0.0 sec)
Calculating Nuclear repulsion               ... done (  0.0 sec) ENN=     37.411533585182 Eh

SHARK setup successfully completed in   0.1 seconds

Maximum memory used throughout the entire GTOINT-calculation: 12.0 MB


           ************************************************************
           *        Program running with 6 parallel MPI-processes     *
           *              working on a common directory               *
           ************************************************************

Diagonalization of the overlap matrix:
Smallest eigenvalue                        ... 7.154e-03
Time for diagonalization                   ...    0.001 sec
Threshold for overlap eigenvalues          ... 1.000e-08
Number of eigenvalues below threshold      ... 0
Time for construction of square roots      ...    0.001 sec
Total time needed                          ...    0.003 sec

Time for model grid setup =    0.029 sec

Loading Hartree-Fock densities                     ... done
Calculating cut-offs                               ... done
Initializing the effective Hamiltonian             ... done
Setting up the integral package (SHARK)            ... done
Starting the Coulomb interaction                   ... done (   0.0 sec)
Reading the grid                                   ... done
Mapping shells                                     ... done
Starting the XC term evaluation                    ... done (   0.0 sec)
Transforming the Hamiltonian                       ... done (   0.0 sec)
Diagonalizing the Hamiltonian                      ... done (   0.0 sec)
Back transforming the eigenvectors                 ... done (   0.0 sec)
Now organizing SCF variables                       ... done
--------------------
COSX GRID GENERATION
--------------------

GRIDX 1
-------
General Integration Accuracy     IntAcc      ... 4.020
Radial Grid Type                 RadialGrid  ... OptM3 with GC (2021)
Angular Grid (max. ang.)         AngularGrid ... 2 (Lebedev-110)
Angular grid pruning method      GridPruning ... 4 (adaptive)
Weight generation scheme         WeightScheme... Becke
Basis function cutoff            BFCut       ... 1.0000e-10
Integration weight cutoff        WCut        ... 1.0000e-14
Angular grids for H and He will be reduced by one unit
Partially contracted basis set               ... on
Rotationally invariant grid construction     ... off

Total number of grid points                  ...     6941
Total number of batches                      ...      112
Average number of points per batch           ...       61
Average number of grid points per atom       ...     1388
UseSFitting                                  ... on

GRIDX 2
-------
General Integration Accuracy     IntAcc      ... 4.338
Radial Grid Type                 RadialGrid  ... OptM3 with GC (2021)
Angular Grid (max. ang.)         AngularGrid ... 3 (Lebedev-194)
Angular grid pruning method      GridPruning ... 4 (adaptive)
Weight generation scheme         WeightScheme... Becke
Basis function cutoff            BFCut       ... 1.0000e-10
Integration weight cutoff        WCut        ... 1.0000e-14
Angular grids for H and He will be reduced by one unit
Partially contracted basis set               ... on
Rotationally invariant grid construction     ... off

Total number of grid points                  ...    15035
Total number of batches                      ...      238
Average number of points per batch           ...       63
Average number of grid points per atom       ...     3007
UseSFitting                                  ... on

GRIDX 3
-------
General Integration Accuracy     IntAcc      ... 4.871
Radial Grid Type                 RadialGrid  ... OptM3 with GC (2021)
Angular Grid (max. ang.)         AngularGrid ... 4 (Lebedev-302)
Angular grid pruning method      GridPruning ... 4 (adaptive)
Weight generation scheme         WeightScheme... Becke
Basis function cutoff            BFCut       ... 1.0000e-10
Integration weight cutoff        WCut        ... 1.0000e-14
Angular grids for H and He will be reduced by one unit
Partially contracted basis set               ... on
Rotationally invariant grid construction     ... off

Total number of grid points                  ...    29172
Total number of batches                      ...      458
Average number of points per batch           ...       63
Average number of grid points per atom       ...     5834
UseSFitting                                  ... on

Time for X-Grid setup             =    0.171 sec

 re-compute Schwartz prescreening matrix in partically contracted basis (1) ...done (   0.064 sec)
--------------
SCF ITERATIONS
--------------
ITER       Energy         Delta-E        Max-DP      RMS-DP      [F,P]     Damp
               ***  Starting incremental Fock matrix formation  ***
  0   -139.0065996760   0.000000000000 0.03638390  0.00182238  0.1277653 0.7000
  1   -139.0217197117  -0.015120035699 0.02817420  0.00141177  0.0859097 0.7000
                               ***Turning on DIIS***
  2   -139.0315976197  -0.009877907964 0.06136042  0.00318470  0.0566578 0.0000
  3   -139.0019316237   0.029665995933 0.01456408  0.00071084  0.0164952 0.0000
                      *** Initiating the SOSCF procedure ***
                           *** Shutting down DIIS ***
                      *** Re-Reading the Fockian *** 
                      *** Removing any level shift *** 
ITER      Energy       Delta-E        Grad      Rot      Max-DP    RMS-DP
  4   -139.05007925  -0.0481476237  0.001766  0.001766  0.001892  0.000196
               *** Restarting incremental Fock matrix formation ***
  5   -139.05322789  -0.0031486428  0.000493  0.000499  0.000927  0.000088
  6   -139.05323336  -0.0000054674  0.000196  0.000255  0.000552  0.000048
  7   -139.05323396  -0.0000006033  0.000103  0.000040  0.000135  0.000008
                 **** Energy Check signals convergence ****
              ***Rediagonalizing the Fockian in SOSCF/NRSCF***

               *****************************************************
               *                     SUCCESS                       *
               *           SCF CONVERGED AFTER   8 CYCLES          *
               *****************************************************

Old exchange energy                            =    -16.320052565 Eh
New exchange energy                            =    -16.320045939 Eh
Exchange energy change after final integration =      0.000006626 Eh
Total energy after final integration           =   -139.053227410 Eh
Final COS-X integration done in                =     0.152 sec
Total Energy       :         -139.05322741 Eh           -3783.83068 eV
  Last Energy change         ...   -7.5174e-08  Tolerance :   1.0000e-06
  Last MAX-Density change    ...    8.8818e-16  Tolerance :   1.0000e-05
             **** THE GBW FILE WAS UPDATED (ch3f_lw1x-jun_Compound_1.gbw) ****
             **** DENSITY ch3f_lw1x-jun_Compound_1.scfp WAS UPDATED ****
             **** ENERGY FILE WAS UPDATED (ch3f_lw1x-jun_Compound_1.en.tmp) ****
             **** THE GBW FILE WAS UPDATED (ch3f_lw1x-jun_Compound_1.gbw) ****
             **** DENSITY ch3f_lw1x-jun_Compound_1.scfp WAS UPDATED ****
----------------
ORBITAL ENERGIES
----------------

  NO   OCC          E(Eh)            E(eV) 
   0   2.0000     -26.290125      -715.3907 
   1   2.0000     -11.315773      -307.9178 
   2   2.0000      -1.595867       -43.4257 
   3   2.0000      -0.958812       -26.0906 
   4   2.0000      -0.697469       -18.9791 
   5   2.0000      -0.697467       -18.9790 
   6   2.0000      -0.678271       -18.4567 
   7   2.0000      -0.531705       -14.4684 
   8   2.0000      -0.531702       -14.4684 
   9   0.0000       0.076250         2.0749 
  10   0.0000       0.094629         2.5750 
  11   0.0000       0.096804         2.6342 
  12   0.0000       0.096810         2.6343 
  13   0.0000       0.272530         7.4159 
  14   0.0000       0.290401         7.9022 
  15   0.0000       0.290404         7.9023 
  16   0.0000       0.313141         8.5210 
  17   0.0000       0.313142         8.5210 
  18   0.0000       0.344704         9.3799 
  19   0.0000       0.360648         9.8137 
  20   0.0000       0.483274        13.1505 
  21   0.0000       0.711369        19.3573 
  22   0.0000       0.711379        19.3576 
  23   0.0000       0.826870        22.5003 
  24   0.0000       0.862353        23.4658 
  25   0.0000       0.862354        23.4658 
  26   0.0000       1.006029        27.3754 
  27   0.0000       1.195854        32.5408 
  28   0.0000       1.195855        32.5409 
  29   0.0000       1.359743        37.0005 
  30   0.0000       1.651857        44.9493 
  31   0.0000       1.731591        47.1190 
  32   0.0000       1.731611        47.1195 
  33   0.0000       1.761670        47.9375 
  34   0.0000       1.895838        51.5884 
  35   0.0000       1.895840        51.5884 
  36   0.0000       1.965448        53.4826 
  37   0.0000       1.965449        53.4826 
  38   0.0000       1.996163        54.3184 
  39   0.0000       2.202751        59.9399 
  40   0.0000       2.383795        64.8664 
  41   0.0000       2.383796        64.8664 
  42   0.0000       2.661291        72.4174 
  43   0.0000       2.751133        74.8621 
  44   0.0000       2.751141        74.8624 
  45   0.0000       2.862763        77.8997 
  46   0.0000       4.019521       109.3767 
  47   0.0000       4.019600       109.3789 
  48   0.0000       4.258583       115.8819 
  49   0.0000       4.258584       115.8820 
  50   0.0000       4.535626       123.4207 
Total SCF time: 0 days 0 hours 0 min 1 sec 

Maximum memory used throughout the entire SCF-calculation: 43.8 MB


           ************************************************************
           *        Program running with 6 parallel MPI-processes     *
           *              working on a common directory               *
           ************************************************************


------------------------------------------------------------------------------- 
                              ORCA-MATRIX DRIVEN CI                            
------------------------------------------------------------------------------- 


Wavefunction type
-----------------
Correlation treatment                      ...      CCSD     
Single excitations                         ... ON
Orbital optimization                       ... OFF
Calculation of Z vector                    ... OFF
Calculation of Brueckner orbitals          ... OFF
Perturbative triple excitations            ... ON
Calculation of F12 correction              ... ON
   Using RI for F12 correction             ... ON
   GSO occupation number cut-off           ... 0.000e+00
Frozen core treatment                      ... chemical core (4 el)
Reference Wavefunction                     ... RHF
  Internal Orbitals:     2 ...    8 (  7 MO's/ 14 electrons)
  Virtual  Orbitals:     9 ...   50 ( 42 MO's              )
Number of AO's                             ...     51
Number of electrons                        ...     18
Number of correlated electrons             ...     14

Algorithmic settings
--------------------
Integral transformation                    ... All integrals via the RI transformation
K(C) Formation                             ... RI-DLPNO
   PNO-Integral Storage                    ... ON DISK
   PNO occupation number cut-off           ... 1.000e-07
   Singles PNO occupation number cut-off   ... 3.000e-09
   PNO Mulliken prescreening cut-off       ... 1.000e-03
   Domain cut-off (Mulliken population)    ... 1.000e-03
   PNO Normalization                       ...    1
Maximum number of iterations               ...        50
Convergence tolerance (max. residuum)      ... 2.500e-05
Level shift for amplitude update           ... 2.000e-01
Maximum number of DIIS vectors             ...         7
DIIS turned on at iteration                ...         0
Damping before turning on DIIS             ...     0.500
Damping after turning on DIIS              ...     0.000
Pair specific amplitude update             ... OFF
Natural orbital iterations                 ... OFF
Perturbative natural orbital generation    ... OFF
Printlevel                                 ... 2

Singles Fock matrix elements calculated using PNOs.

Memory handling:
----------------
Maximum memory for working arrays          ...   1000 MB
Data storage in matrix containers          ... UNCOMPRESSED
Data type for integral storage             ... DOUBLE
In-Core Storage of quantities:
   Amplitudes+Sigma Vector      ... NO
   J+K operators                ... NO
   DIIS vectors                 ... NO
   3-external integrals         ... NO
   4-external integrals         ... NO

Localization treatment:
-----------------------
Localization option                        ...    6
Localization threshhold                    ... -1.0e+00
Using relative localization threshhold     ... 1.0e-08
Neglect threshold for strong pairs         ... 1.000e-05 Eh
Prescreening threshold for very weak pairs ... 1.000e-07 Eh

Initializing the integral package          ... done
Localizing the valence orbitals
------------------------------------------------------------------------------
                           ORCA ORBITAL LOCALIZATION
------------------------------------------------------------------------------

Input orbitals are from                  ... ch3f_lw1x-jun_Compound_1.gbw
Output orbitals are to                   ... ch3f_lw1x-jun_Compound_1.loc
Max. number of iterations                ... 128
Localizations seeded randomly            ... off
Convergence tolerance                    ... 1.000e-06
Using relative localization threshhold   ... 1.000e-08
Treshold for strong local MOs            ... 9.500e-01
Treshold for bond MOs                    ... 8.500e-01
Operator                                 ... 0
Orbital range for localization           ... 2 to 8
Localization criterion                   ... FOSTER-BOYS (AUGMENTED HESSIAN)
Doing the dipole integrals     ... o.k.
Initial value of the localization sum :    14.969975
ITERATION   0 : L=   20.2427191180 DL=  5.27e+00 (AVERGE_DL)=    0.5010818979 
ITERATION   1 : L=   21.6694905528 DL=  1.43e+00 (AVERGE_DL)=    0.2606558975 
ITERATION   2 : L=   21.6800366922 DL=  1.05e-02 (AVERGE_DL)=    0.0224097549 
ITERATION   3 : L=   21.6810308042 DL=  9.94e-04 (AVERGE_DL)=    0.0068803100 
ITERATION   4 : L=   21.6812777774 DL=  2.47e-04 (AVERGE_DL)=    0.0034293775 
ITERATION   5 : L=   21.6814482025 DL=  1.70e-04 (AVERGE_DL)=    0.0028487684 
ITERATION   6 : L=   21.6816121733 DL=  1.64e-04 (AVERGE_DL)=    0.0027943038 
ITERATION   7 : L=   21.6817719022 DL=  1.60e-04 (AVERGE_DL)=    0.0027579227 
ITERATION   8 : L=   21.6819290916 DL=  1.57e-04 (AVERGE_DL)=    0.0027359115 
ITERATION   9 : L=   21.6820836196 DL=  1.55e-04 (AVERGE_DL)=    0.0027126512 
ITERATION  10 : L=   21.6822351648 DL=  1.52e-04 (AVERGE_DL)=    0.0026863428 
ITERATION  11 : L=   21.6823833154 DL=  1.48e-04 (AVERGE_DL)=    0.0026560853 
ITERATION  12 : L=   21.6825276718 DL=  1.44e-04 (AVERGE_DL)=    0.0026218528 
ITERATION  13 : L=   21.6826678744 DL=  1.40e-04 (AVERGE_DL)=    0.0025838569 
ITERATION  14 : L=   21.6828036119 DL=  1.36e-04 (AVERGE_DL)=    0.0025423790 
ITERATION  15 : L=   21.6829346235 DL=  1.31e-04 (AVERGE_DL)=    0.0024977280 
ITERATION  16 : L=   21.6830606990 DL=  1.26e-04 (AVERGE_DL)=    0.0024502243 
ITERATION  17 : L=   21.6831816787 DL=  1.21e-04 (AVERGE_DL)=    0.0024001952 
ITERATION  18 : L=   21.6832974506 DL=  1.16e-04 (AVERGE_DL)=    0.0023479664 
ITERATION  19 : L=   21.6834079492 DL=  1.10e-04 (AVERGE_DL)=    0.0022938698 
ITERATION  20 : L=   21.6835131491 DL=  1.05e-04 (AVERGE_DL)=    0.0022381950 
ITERATION  21 : L=   21.6836130675 DL=  9.99e-05 (AVERGE_DL)=    0.0021812889 
ITERATION  22 : L=   21.6837077526 DL=  9.47e-05 (AVERGE_DL)=    0.0021233970 
ITERATION  23 : L=   21.6837972874 DL=  8.95e-05 (AVERGE_DL)=    0.0020648393 
ITERATION  24 : L=   21.6838817799 DL=  8.45e-05 (AVERGE_DL)=    0.0020058539 
ITERATION  25 : L=   21.6839613584 DL=  7.96e-05 (AVERGE_DL)=    0.0019466518 
ITERATION  26 : L=   21.6840361722 DL=  7.48e-05 (AVERGE_DL)=    0.0018874753 
ITERATION  27 : L=   21.6841063928 DL=  7.02e-05 (AVERGE_DL)=    0.0018286167 
ITERATION  28 : L=   21.6841721931 DL=  6.58e-05 (AVERGE_DL)=    0.0017701261 
ITERATION  29 : L=   21.6842337576 DL=  6.16e-05 (AVERGE_DL)=    0.0017122043 
ITERATION  30 : L=   21.6842912795 DL=  5.75e-05 (AVERGE_DL)=    0.0016550345 
ITERATION  31 : L=   21.6843449520 DL=  5.37e-05 (AVERGE_DL)=    0.0015986965 
ITERATION  32 : L=   21.6843949729 DL=  5.00e-05 (AVERGE_DL)=    0.0015433569 
ITERATION  33 : L=   21.6844415360 DL=  4.66e-05 (AVERGE_DL)=    0.0014890569 
ITERATION  34 : L=   21.6844848348 DL=  4.33e-05 (AVERGE_DL)=    0.0014359138 
ITERATION  35 : L=   21.6845250569 DL=  4.02e-05 (AVERGE_DL)=    0.0013839568 
ITERATION  36 : L=   21.6845623877 DL=  3.73e-05 (AVERGE_DL)=    0.0013332879 
ITERATION  37 : L=   21.6845970044 DL=  3.46e-05 (AVERGE_DL)=    0.0012839064 
ITERATION  38 : L=   21.6846290790 DL=  3.21e-05 (AVERGE_DL)=    0.0012358640 
ITERATION  39 : L=   21.6846587758 DL=  2.97e-05 (AVERGE_DL)=    0.0011891736 
ITERATION  40 : L=   21.6846862522 DL=  2.75e-05 (AVERGE_DL)=    0.0011438531 
ITERATION  41 : L=   21.6847116587 DL=  2.54e-05 (AVERGE_DL)=    0.0010999254 
ITERATION  42 : L=   21.6847351366 DL=  2.35e-05 (AVERGE_DL)=    0.0010573523 
ITERATION  43 : L=   21.6847568208 DL=  2.17e-05 (AVERGE_DL)=    0.0010161602 
ITERATION  44 : L=   21.6847768384 DL=  2.00e-05 (AVERGE_DL)=    0.0009763283 
ITERATION  45 : L=   21.6847953084 DL=  1.85e-05 (AVERGE_DL)=    0.0009378302 
ITERATION  46 : L=   21.6848123434 DL=  1.70e-05 (AVERGE_DL)=    0.0009006600 
ITERATION  47 : L=   21.6848280486 DL=  1.57e-05 (AVERGE_DL)=    0.0008647921 
ITERATION  48 : L=   21.6848425223 DL=  1.45e-05 (AVERGE_DL)=    0.0008301953 
ITERATION  49 : L=   21.6848558566 DL=  1.33e-05 (AVERGE_DL)=    0.0007968487 
ITERATION  50 : L=   21.6848681374 DL=  1.23e-05 (AVERGE_DL)=    0.0007647233 
ITERATION  51 : L=   21.6848794448 DL=  1.13e-05 (AVERGE_DL)=    0.0007337904 
ITERATION  52 : L=   21.6848898528 DL=  1.04e-05 (AVERGE_DL)=    0.0007040016 
ITERATION  53 : L=   21.6848994307 DL=  9.58e-06 (AVERGE_DL)=    0.0006753453 
ITERATION  54 : L=   21.6849082428 DL=  8.81e-06 (AVERGE_DL)=    0.0006477824 
ITERATION  55 : L=   21.6849163487 DL=  8.11e-06 (AVERGE_DL)=    0.0006212844 
ITERATION  56 : L=   21.6849238034 DL=  7.45e-06 (AVERGE_DL)=    0.0005958064 
ITERATION  57 : L=   21.6849306583 DL=  6.85e-06 (AVERGE_DL)=    0.0005713341 
ITERATION  58 : L=   21.6849369602 DL=  6.30e-06 (AVERGE_DL)=    0.0005478051 
ITERATION  59 : L=   21.6849427530 DL=  5.79e-06 (AVERGE_DL)=    0.0005252142 
ITERATION  60 : L=   21.6849480771 DL=  5.32e-06 (AVERGE_DL)=    0.0005035137 
ITERATION  61 : L=   21.6849529696 DL=  4.89e-06 (AVERGE_DL)=    0.0004826802 
ITERATION  62 : L=   21.6849574655 DL=  4.50e-06 (AVERGE_DL)=    0.0004626952 
ITERATION  63 : L=   21.6849615959 DL=  4.13e-06 (AVERGE_DL)=    0.0004434954 
ITERATION  64 : L=   21.6849653904 DL=  3.79e-06 (AVERGE_DL)=    0.0004250793 
ITERATION  65 : L=   21.6849688762 DL=  3.49e-06 (AVERGE_DL)=    0.0004074146 
ITERATION  66 : L=   21.6849720778 DL=  3.20e-06 (AVERGE_DL)=    0.0003904588 
ITERATION  67 : L=   21.6849750181 DL=  2.94e-06 (AVERGE_DL)=    0.0003741887 
ITERATION  68 : L=   21.6849777184 DL=  2.70e-06 (AVERGE_DL)=    0.0003585884 
ITERATION  69 : L=   21.6849801982 DL=  2.48e-06 (AVERGE_DL)=    0.0003436347 
ITERATION  70 : L=   21.6849824753 DL=  2.28e-06 (AVERGE_DL)=    0.0003292876 
ITERATION  71 : L=   21.6849845660 DL=  2.09e-06 (AVERGE_DL)=    0.0003155328 
ITERATION  72 : L=   21.6849864856 DL=  1.92e-06 (AVERGE_DL)=    0.0003023389 
ITERATION  73 : L=   21.6849882480 DL=  1.76e-06 (AVERGE_DL)=    0.0002896947 
ITERATION  74 : L=   21.6849898660 DL=  1.62e-06 (AVERGE_DL)=    0.0002775708 
ITERATION  75 : L=   21.6849913513 DL=  1.49e-06 (AVERGE_DL)=    0.0002659538 
ITERATION  76 : L=   21.6849927149 DL=  1.36e-06 (AVERGE_DL)=    0.0002548217 
ITERATION  77 : L=   21.6849939666 DL=  1.25e-06 (AVERGE_DL)=    0.0002441342 
ITERATION  78 : L=   21.6849951155 DL=  1.15e-06 (AVERGE_DL)=    0.0002339070 
ITERATION  79 : L=   21.6849961702 DL=  1.05e-06 (AVERGE_DL)=    0.0002241011 
ITERATION  80 : L=   21.6849971382 DL=  9.68e-07 (AVERGE_DL)=    0.0002147022 
LOCALIZATION SUM CONVERGED

------------------------------------------------------
AUGMENTED HESSIAN OPTIMIZATION OF FOSTER-BOYS ORBITALS
------------------------------------------------------

Spin operator:           0
Orbital window:          2 to 8
Number of iterations:    128
Gradient tolerance:      1.000e-06
Number of pairs:         21
Davidson threshold:      2000
Diagonalization method:  LAPACK
Iter:    0   L: 21.6849971382   Grad. norm: 1.221425e-03
   *** Likely close to a maximum now. ***
       Augmented Hessian eigenvalues:  2.16e-05 -3.38e-02 -1.57e+00 -1.58e+00 ... 
Iter:    1   L: 21.6850079345   Grad. norm: 1.460275e-04
Iter:    2   L: 21.6850079347   Grad. norm: 3.086473e-10
LOCALIZATION HAS CONVERGED.

Eigenvalues of the Hessian:
  0 -3.387e-02
  1 -1.575e+00
  2 -1.575e+00
  3 -3.701e+00
  4 -3.701e+00
  5 -5.823e+00
  6 -1.731e+01
  7 -2.164e+01
  8 -2.164e+01
  9 -2.525e+01
    ...


------------------------------------------------------------------------------- 
                    LOCALIZED MOLECULAR ORBITAL COMPOSITIONS                   
------------------------------------------------------------------------------- 

The Mulliken populations for each LMO on each atom are computed
The LMO`s will be ordered according to atom index and type
  (A) Strongly localized MO`s have populations of >=0.950 on one atom
  (B) Two center bond orbitals have populations of >=0.850 on two atoms
  (C) Other MO`s are considered to be `delocalized`

FOUND  -   3 strongly local MO`s
       -   4 two center bond MO`s
       -   0 significantly delocalized MO`s

Rather strongly localized orbitals:
MO   4:   0F  -   1.004616
MO   3:   0F  -   1.004626
MO   2:   0F  -   1.004626
Bond-like localized orbitals:
MO   8:   4H  -   0.483665  and   1C  -   0.544483
MO   7:   3H  -   0.483665  and   1C  -   0.544483
MO   6:   2H  -   0.483722  and   1C  -   0.544362
MO   5:   1C  -   0.307584  and   0F  -   0.690916
Localized MO's were stored in: ch3f_lw1x-jun_Compound_1.loc

Localizing the core orbitals
------------------------------------------------------------------------------
                           ORCA ORBITAL LOCALIZATION
------------------------------------------------------------------------------

Input orbitals are from                  ... ch3f_lw1x-jun_Compound_1.loc
Output orbitals are to                   ... ch3f_lw1x-jun_Compound_1.loc
Max. number of iterations                ... 128
Localizations seeded randomly            ... off
Convergence tolerance                    ... 1.000e-06
Using relative localization threshhold   ... 1.000e-08
Treshold for strong local MOs            ... 9.500e-01
Treshold for bond MOs                    ... 8.500e-01
Operator                                 ... 0
Orbital range for localization           ... 0 to 1
Localization criterion                   ... FOSTER-BOYS (AUGMENTED HESSIAN)
Doing the dipole integrals     ... o.k.
Initial value of the localization sum :     3.424474
ITERATION   0 : L=    3.4244736557 DL=  8.02e-09 (AVERGE_DL)=    0.0000895476 
LOCALIZATION SUM CONVERGED

------------------------------------------------------
AUGMENTED HESSIAN OPTIMIZATION OF FOSTER-BOYS ORBITALS
------------------------------------------------------

Spin operator:           0
Orbital window:          0 to 1
Number of iterations:    128
Gradient tolerance:      1.000e-06
Number of pairs:         1
Davidson threshold:      2000
Diagonalization method:  LAPACK
Iter:    0   L: 3.4244736557   Grad. norm: 7.910115e-19
   *** Likely close to a maximum now. ***
       Augmented Hessian eigenvalues:  2.30e-38 -2.72e+01
Iter:    1   L: 3.4244736557   Grad. norm: 0.000000e+00
LOCALIZATION HAS CONVERGED.

Eigenvalues of the Hessian:
  0 -2.719e+01


------------------------------------------------------------------------------- 
                    LOCALIZED MOLECULAR ORBITAL COMPOSITIONS                   
------------------------------------------------------------------------------- 

The Mulliken populations for each LMO on each atom are computed
The LMO`s will be ordered according to atom index and type
  (A) Strongly localized MO`s have populations of >=0.950 on one atom
  (B) Two center bond orbitals have populations of >=0.850 on two atoms
  (C) Other MO`s are considered to be `delocalized`

FOUND  -   2 strongly local MO`s
       -   0 two center bond MO`s
       -   0 significantly delocalized MO`s

Rather strongly localized orbitals:
MO   1:   1C  -   0.999159
MO   0:   0F  -   0.999929
Localized MO's were stored in: ch3f_lw1x-jun_Compound_1.loc

Warning: reference  - re-canonicalizations have been set to INT 1 VIRT 1
Warning: internal orbitals are localized - no re-canonicalization of internal orbitals
Warning: UsePNO is turned on - no re-canonicalization of internal and virtual orbitals

--------------------------
CLOSED-SHELL FOCK OPERATOR
--------------------------

Restoring SHARK [2] ... ok
Entering RIJCOSX section for the Fock matrix
Trying to retrieve the full J-matrix              ... done
Updating the Fock matrix                          ... done
Making the frozen core Coulomb matrix             ... SHARKdone
Retrieving the full K-matrix                      ... done
Calculating the frozen core K-matrix              ... done
Updating the Fock matrix                          ... done
Time needed for Fock operator              ...            0.185 sec
Reference energy                           ...   -139.053228748

------------------------------
Initializing F12 data
------------------------------

Mapping basis set                  ... done
Dimension of the orbital basis set  = 51
Dimension of the CABS basis set     = 325
Dimension of the AUX basis set      = 325
Threshold for CABS orthogonalization = 1.000e-08
Will use an exponential correlation factor -Exp(-gamma r12)/gamma (gamma= 1.200) fit to 6 Gaussians 
Correlation factor:   
  NGauss  :          6      
  Gaussian expansion: 
    a(0)=     0.275538290  d(0)=    -0.219608289 
    a(1)=     1.140545851  d(1)=    -0.254494187 
    a(2)=     3.958256930  d(2)=    -0.154545985 
    a(3)=    13.126858855  d(3)=    -0.093273119 
    a(4)=    49.287409437  d(4)=    -0.057916694 
    a(5)=   272.920084966  d(5)=    -0.035942168 
Calculating one-electron matrices                       ... done (      0.1 sec)
Calculating pre-screening matrices:                     ...
       .... 1/r12 done          (      0.1 sec)
       .... f12/r12 done        (      0.0 sec)
       .... f12 done            (      0.0 sec)
       .... f12^2 done          (      0.1 sec)
       .... [f12,[T1,f12]] done (      0.1 sec)
                                                        ... done (      0.3 sec)
Making CABS spaces                                      ... done (      0.0 sec)
Calculating 2-index 2-center F12 integrals              ... 
Two index explicit correlation integrals  op=0          ... done (      0.0 sec) 
Two index explicit correlation integrals  op=1          ... done (      0.0 sec) 
Two index explicit correlation integrals  op=2          ... done (      0.0 sec) 
Two index explicit correlation integrals  op=3          ... done (      0.0 sec) 
Two index explicit correlation integrals  op=4          ... done (      0.0 sec) 
                                                            done (      0.1 sec)

--------------
DLPNO SETTINGS (2015 fully linear scaling implementation)
--------------

TCutMKN:           1.000e-03
TCutPAO:           1.000e-03
TCutPNO:           1.000e-07
TCutPNOSingles:    3.000e-09
TCutEN:            9.700e-01
TCutPAOExt:        1.000e-01
TCutPairs:         1.000e-05
TCutPre:           1.000e-07
TCutOSV:           1.000e-06
TCutDOij:          1.000e-05
TCutDO:            5.000e-03
TCutC:             1.000e-04
TCutCPAO:          1.000e-03
TCutCMO:           1.000e-03
TScaleDOMP2PreScr: 2.000e+00
TScaleMKNMP2PreScr:1.000e+01
TScalePNOMP2PreScr:1.000e+00
PAO overlap thresh 1.000e-08
Using PNOs for Singles Fock computation
Use new domains
Use fully linear algorithm
TCutTNO:           1.000e-09
TCutMP2Pairs:      1.000e-06
TCutDOStrong:      2.000e-03
TCutMKNStrong:     1.000e-02
TCutMKNWeak:       1.000e-01
TCutDOWeak:        4.000e-03
NTCutTNO:          1

--------------------------
Mulliken population of the LMOs            ... ok
Performing proximity check                 ... No problems found
Calculating differential overlap integrals ... ok

--------------------------
ELECTRON PAIR PRESCREENING
--------------------------

Dipole-based pair screening          .... used

   TCutDOij = 1.000000e-05
   TCutPre  = 1.000000e-07
   .... Finished loop over pairs
Total time spent in the prescreening                  ...     0.000 sec
sum of pair energies estimated for screened out pairs ...       0.000000000000 Eh
Thresholds for map construction and integral transformation for crude MP2:
   TCutMKN                    ...     1.0e-02
   TCutDO                     ...     1.0e-02
   TCutPairs                  ...     1.0e-05
   TCutPNO_CrudeMP2           ...     1.0e-07
   TCutPNOSingles_CrudeMP2    ...     3.0e-09
--------------------------------
LOCAL RI TRANSFORMATION (IAVPAO)
--------------------------------

Orbital window:       2 to 8
Number of PAOs:      51
Basis functions:     51 (25 shells)
Aux. functions:     325 (123 shells)
Use SHARK:           on

Processing maps (0.0 sec)
Average map sizes:
   Aux shells -> MOs               7.0
   Aux shells -> PAOs             51.0
   MOs        -> AO shells        25.0
   PAOs       -> AO shells        25.0

Calculating integrals (0.1 sec, 0.889 MB)
Sorting integrals (0.0 sec, 0.885 MB)
Total time for the integral transformation: 0.1 sec
--------------------------------
INITIAL GUESS AND PNO GENERATION
--------------------------------

PNO truncation parameters                   .... 
    PAOOverlapThresh   =        1.000e-08

    TCutPairs          =        1.000e-05
    TCutPNO            =        1.000e-07
    TCutPNOSingles     =        3.000e-09
    TCutMP2Pairs       =        1.000e-06
    TCutMKN            =        1.000e-02
    TCutDO             =        1.000e-02

Pair selection                          .... not used
Type of local MP2 treatment                 .... semi-local MP2
Strategy for PNO selection                  .... occupation number selection
Pair density normalization                  .... MP2 norm
Spin component scaling                      .... not used

   .... Finished loop over pairs
Making pair pair interaction lists          ... done

                       ===========================
                         28 OF   28 PAIRS ARE KEPT CCSD PAIRS
                          0 OF   28 PAIRS ARE KEPT MP2 PAIRS FOR (T)
                          0 OF   28 PAIRS ARE SKIPPED
                       ===========================

Total time spent in the initial guess                 ...     0.019 sec
SL-MP2 correlation energy (all non-screened pairs)    ...      -0.328106462923 Eh

Initial PNO correlation energy                        ...      -0.328072877996 Eh
sum of pair energies prescreened and skipped MP2 pairs...       0.000000000000 Eh
sum of pair energies of crude MP2 skipped pairs only  ...       0.000000000000 Eh
sum of MP2 pair energies for pairs that were not kept ...       0.000000000000 Eh
sum of PNO error estimates for the kept pairs         ...      -0.000033584927 Eh
                                                          --------------------
sum of all corrections                                         -0.000033584927
Initial total correlation energy                               -0.328106462923
Thresholds for map construction and integral transformation for fine MP2 and CCSD(T) calculation:
   TCutMKN   ...     1.0e-03
   TCutDO    ...     5.0e-03
   TCutPairs ...     1.0e-05
   TCutCMO   ...     1.0e-03
   TCutCPAO  ...     1.0e-03

Thresholds for map construction and integral transformation for strong Triples:
   TCutMKN   ...     1.0e-02
   TCutDO    ...     1.0e-02
   TCutCMO   ...     1.0e-03
   TCutCPAO  ...     1.0e-03

Thresholds for map construction and integral transformation for weak Triples:
   TCutMKN   ...     1.0e-01
   TCutDO    ...     2.0e-02
   TCutCMO   ...     1.0e-03
   TCutCPAO  ...     1.0e-03

--------------------------------
LOCAL RI TRANSFORMATION (IAVPAO)
--------------------------------

Orbital window:       2 to 8
Number of PAOs:      51
Basis functions:     51 (25 shells)
Aux. functions:     325 (123 shells)
Use SHARK:           on

Processing maps (0.0 sec)
Average map sizes:
   Aux shells -> MOs               7.0
   Aux shells -> PAOs             51.0
   MOs        -> AO shells        25.0
   PAOs       -> AO shells        25.0

Calculating integrals (0.1 sec, 0.889 MB)
Sorting integrals (0.0 sec, 0.885 MB)
Total time for the integral transformation: 0.1 sec
--------------------------------
INITIAL GUESS AND PNO GENERATION
--------------------------------

PNO truncation parameters                   .... 
    ScaleTCutPNO       =        1.000e-02
    PAOOverlapThresh   =        1.000e-08

    TCutPairs          =        1.000e-05
    TCutPNO            =        1.000e-07
    TCutPNOSingles     =        3.000e-09
    TCutMP2Pairs       =        1.000e-06
    TCutMKN            =        1.000e-03
    TCutDO             =        5.000e-03

Pair selection                          .... not used
Type of local MP2 treatment                 .... full local PMP2
Strategy for PNO selection                  .... occupation number selection
Pair density normalization                  .... MP2 norm
Spin component scaling                      .... not used

PASS-1: Formation of initial guess LMP2 amplitudes
Initial amplitudes guess done. Entering LMP2 iteration loop:
   Max. no of iterations          ...  50
   Energy convergence tolerance   ...    1.0e-07
   Residual convergence tolerance ...    5.0e-07
   Fock matrix cutoff             ...    1.0e-05 Eh
   DIIS convergence acceleration parameters:
        Max # vectors in DIIS     ... 7
        Start iteration of DIIS   ... 0
        Levelshift                ... 2.000e-01
        Damping factor 1          ... 5.000e-01
        Damping factor 2          ... 1.000e+00
   L-MP2 PNO cut-off              ...   1.0e-09
   L-MP2 PNO cut-off (core)       ...   1.0e-11
                           *** Turning on DIIS ***
LMP2-Iter=   0:  ELMP2= -0.335676692874  DE=   7.6e-03 RMAX=   6.4e-03
LMP2-Iter=   1:  ELMP2= -0.339305783452  DE=   3.6e-03 RMAX=   4.5e-03
LMP2-Iter=   2:  ELMP2= -0.339856720675  DE=   5.5e-04 RMAX=   5.4e-04
LMP2-Iter=   3:  ELMP2= -0.339932604759  DE=   7.6e-05 RMAX=   3.1e-04
LMP2-Iter=   4:  ELMP2= -0.339938577133  DE=   6.0e-06 RMAX=   1.9e-05
LMP2-Iter=   5:  ELMP2= -0.339938377664  DE=   2.0e-07 RMAX=   8.1e-06
LMP2-Iter=   6:  ELMP2= -0.339938330091  DE=   4.8e-08 RMAX=   5.2e-07
LMP2-Iter=   7:  ELMP2= -0.339938321977  DE=   8.1e-09 RMAX=   1.7e-07
LMP2-Iter=   8:  ELMP2= -0.339938329040  DE=   7.1e-09 RMAX=   2.7e-08 => CONVERGED
PASS-2: Formation of Pair natural orbitals
   .... Finished loop over pairs

 PNO Occupation Number Statistics: 
  | Av. % of trace(Dij) retained        ...  99.974997585649
  | sigma^2 in % of trace(Dij) retained ...   9.25e-04
  | Av. % of trace(Di) retained         ...  99.999917941853
  | sigma^2 in % of trace(Di) retained  ...   1.46e-09
 Distributions of % trace(Dij) recovered:
  |       >= 99.9  ...    28 (100.0 % of all pairs)
 Distributions of % trace(Di) recovered :
  |       >= 99.9  ...     7 (100.0 % of all I-pairs )

Making pair pair interaction lists          ... done

                       ===========================
                         28 OF   28 PAIRS ARE KEPT
                       ===========================

Total time spent in the initial guess                 ...     0.090 sec
L-MP2 correlation energy (all non-screened pairs)     ...      -0.339938329040 Eh
L-MP2 PNO error correction                            ...      -0.000000090004 Eh
                                                          --------------------
Initial total L-MP2 energy (non-screened pairs)       ...      -0.339938419044 Eh

Initial PNO correlation energy                        ...      -0.339906890144 Eh
sum of pair energies estimated for screened out pairs ...       0.000000000000 Eh
sum of MP2 pair energies for pairs that were not kept ...       0.000000000000 Eh
sum of PNO error estimates for the kept pairs         ...      -0.000031528900 Eh
                                                          --------------------
sum of all corrections                                         -0.000031528900
Initial total correlation energy                               -0.339938419044
Thresholds for map construction and integral transformation for fine MP2 and CCSD(T) calculation:
   TCutMKN   ...     1.0e-03
   TCutDO    ...     5.0e-03
   TCutPairs ...     1.0e-05
   TCutCMO   ...     1.0e-03
   TCutCPAO  ...     1.0e-03

Number of pairs in F12 (TCutDOF12 = 3.000e-04)        ...     28

Time for aux screen maps:            0.000
Time for maps after fine MP2:            0.001
-----------------------------
LOCAL RI TRANSFORMATION (IJV)
-----------------------------

Orbital window:       2 to 8
Basis functions:     51 (25 shells)
Aux. functions:     325 (123 shells)
Use SHARK:           on

Processing maps (0.0 sec)
Average map sizes:
   Aux shells -> MOs(i)            7.0
   Aux shells -> MOs(j)            7.0
   MOs        -> AO shells        25.0

Calculating integrals (0.1 sec, 0.125 MB)
Sorting integrals (0.0 sec, 0.122 MB)
Total time for the integral transformation: 0.1 sec
--------------------------------
LOCAL RI TRANSFORMATION (VABPAO)
--------------------------------

Number of PAOs:      51
Basis functions:     51 (25 shells)
Aux. functions:     325 (123 shells)
Use SHARK:           on

Processing maps (0.0 sec)
Average map sizes:
   Aux shells -> PAOs             51.0
   PAOs       -> AO shells        25.0

Calculating integrals (0.1 sec, 6.453 MB)
Finished


-------------------------------------
Pair Pair Term precalculation with     
RI-(ij|mn) and (im|jn) transformation  
ON THE FLY                             
-------------------------------------

   IBatch   1 (of   1)              ... done (    0.297 sec)
Total EXT                           ...           0.297 sec

---------------------
RI-PNO TRANSFORMATION
---------------------

Total Number of PNOs                   ...   737
Average number of PNOs per pair        ...    26
Maximal number of PNOs per pair        ...    32
   #pairs with  1 -  5 PNOs   :    0
   #pairs with  6 - 10 PNOs   :    0
   #pairs with 11 - 15 PNOs   :    0
   #pairs with 16 - 20 PNOs   :    3
   #pairs with 21 - 25 PNOs   :    6
   #pairs with 26 - 30 PNOs   :   16
   #pairs with 31 - 35 PNOs   :    3
   #pairs with 36 - 40 PNOs   :    0
   #pairs with 41 - 45 PNOs   :    0
   #pairs with 46 - 50 PNOs   :    0

Generation of (ij|ab)[P] integrals            ... on
Generation of (ia|bc)[P],(ja|bc)[P] integrals ... on
Storage of 3 and 4 external integrals         ... on
Generation of ALL (ka|bc)[P] integrals        ... on
Keep RI integrals in memory                   ... off

Ibatch:  1 (of  1)
Starting 2-4 index PNO integral generation ... done

Timings:
Total PNO integral transformation time     ...          0.135 sec
Size of the 3-external file                ...         4 MB
Size of the 4-external file                ...        14 MB
Size of the IKJL file                      ...         0 MB
Size of the all 3-external file            ...        14 MB
Size of the 1-external file                ...         0 MB

Making pair/pair overlap matrices          ... done (    0.003 sec)
Size of the pair overlap file              ... 3 MB
Redoing the guess amplitudes               ... done (    0.000 sec)

-------------------------
FINAL STARTUP INFORMATION
-------------------------

E(0)                                       ...   -139.053228748
E(L-MP2)                                   ...     -0.339938419
E(L-MP2) including corrections             ...     -0.339938419
Initial E(tot)                             ...   -139.393167167
<T|T>                                      ...      0.079894091
Number of pairs included                   ... 28
Total number of pairs                      ... 28

------------------------------------------------
                  RHF COUPLED CLUSTER ITERATIONS
------------------------------------------------

Number of PNO amplitudes to be optimized   ...        19681
Number of non-PNO amplitudes               ...        49392
Untruncated number of regular amplitudes   ...        49392

Iter       E(tot)           E(Corr)          Delta-E          Residual     Time
  0   -139.381316780     -0.328056503      0.011881916      0.022070619    0.10
                           *** Turning on DIIS ***
  1   -139.401165098     -0.347904821     -0.019848318      0.009902253    0.10
  2   -139.411750676     -0.358490399     -0.010585578      0.003359907    0.10
  3   -139.413466827     -0.360206550     -0.001716151      0.001802364    0.10
  4   -139.414023932     -0.360763655     -0.000557105      0.000389380    0.10
  5   -139.414159421     -0.360899144     -0.000135489      0.000156906    0.10
  6   -139.414178491     -0.360918214     -0.000019070      0.000047077    0.09
  7   -139.414178637     -0.360918360     -0.000000146      0.000023069    0.09
               --- The Coupled-Cluster iterations have converged ---
Making OccT1 to AO map ... ok
3-index local transformation (OBS,OBS/AUX) for   op=0   ... done (      0.0 sec)
3-index local transformation (OBS,CABS/AUX) for  op=0   ... done (      0.1 sec)
3-index local transformation (OBS,OBS/AUX) for   op=1   ... done (      0.0 sec)
3-index local transformation (OBS,CABS/AUX) for  op=1   ... done (      0.1 sec)
3-index local transformation (OBS,OBS/AUX) for   op=2   ... done (      0.0 sec)
3-index local transformation (OBS,CABS/AUX) for  op=2   ... done (      0.1 sec)
3-index local transformation (OBS,OBS/AUX) for   op=3   ... done (      0.1 sec)
3-index local transformation (OBS,CABS/AUX) for  op=3   ... done (      0.2 sec)
3-index local transformation (OBS,OBS/AUX) for   op=4   ... done (      0.1 sec)
3-index local transformation (OBS,CABS/AUX) for  op=4   ... done (      0.2 sec)
3-index local transformation (OBS,OBS/AUX) of (pa|X)    ... done (      0.0 sec)
3-index local transformation (OBS_T1,OBS/AUX) for op=0  ... done (      0.0 sec)
3-index local transformation (OBS_T1,OBS/AUX) for op=1  ... done (      0.0 sec)
3-index local transformation (OBS_F,OBS/AUX) for op=2   ... done (      0.0 sec)
3-index local transformation (OBS_F,CABS/AUX)for op=2   ... done (      0.1 sec)
------------------------
RHF DLPNO F12 CORRECTION
------------------------

Doing SCF density matrices                              ... done (      0.0 sec)
Calculating RI Coulomb operators
Retrieving the Coulomb fitting basis                    ... done
       .... OBS/OBS done        (      0.1 sec)
       .... CABS/OBS done       (      0.1 sec)
       .... CABS/CABS done      (      0.1 sec)

F12 OBS GRIDX
-------------

General Integration Accuracy     IntAcc      ... 4.338
Radial Grid Type                 RadialGrid  ... OptM3 with GC (2021)
Angular Grid (max. ang.)         AngularGrid ... 3 (Lebedev-194)
Angular grid pruning method      GridPruning ... 5 (extended)
Weight generation scheme         WeightScheme... Becke
Basis function cutoff            BFCut       ... 1.0000e-10
Integration weight cutoff        WCut        ... 1.0000e-14
Angular grids for H and He will be reduced by one unit
Partially contracted basis set               ... on
Rotationally invariant grid construction     ... off

Total number of grid points                  ...    38221
Total number of batches                      ...      601
Average number of points per batch           ...       63
Average number of grid points per atom       ...     7644

F12 CABS GRIDX
--------------

General Integration Accuracy     IntAcc      ... 4.338
Radial Grid Type                 RadialGrid  ... OptM3 with GC (2021)
Angular Grid (max. ang.)         AngularGrid ... 3 (Lebedev-194)
Angular grid pruning method      GridPruning ... 5 (extended)
Weight generation scheme         WeightScheme... Becke
Basis function cutoff            BFCut       ... 1.0000e-10
Integration weight cutoff        WCut        ... 1.0000e-14
Angular grids for H and He will be reduced by one unit
Partially contracted basis set               ... on
Rotationally invariant grid construction     ... off

Total number of grid points                  ...    38221
Total number of batches                      ...      601
Average number of points per batch           ...       63
Average number of grid points per atom       ...     7644

Calculating COSX Exchange operators
       .... OBS/OBS done        (      0.4 sec)
       .... CABS/OBS done       (      0.4 sec)
       .... CABS/CABS done      (      2.0 sec)
Completing Fock operators                               ... done (      0.0 sec)
Calculating F12 intermediates (incore)                  ... 

WARNING (ORCA_TOOLS): CalcCholeskyLLoc() returned with error 1
                      Potentially linear dependencies in the aux basis!



WARNING (ORCA_TOOLS): CalcCholeskyLLoc() returned with error 1
                      Potentially linear dependencies in the aux basis!



WARNING (ORCA_TOOLS): CalcCholeskyLLoc() returned with error 1
                      Potentially linear dependencies in the aux basis!



WARNING (ORCA_TOOLS): CalcCholeskyLLoc() returned with error 1
                      Potentially linear dependencies in the aux basis!



WARNING (ORCA_TOOLS): CalcCholeskyLLoc() returned with error 1
                      Potentially linear dependencies in the aux basis!


Total T*B*T Contribution              =   0.143922290129

Total V*T MP2 Contribution            =  -0.288212959821

Total V*T CCSD without S Contribution =  -0.257474811417

Total V*T CCSD with S Contribution    =  -0.256131499438

DeltaEC_MP2                           =  -0.144290669692

DeltaEC_CCSD without S                =  -0.113552521288

DeltaEC_CCSD with S                   =  -0.112209209309
Total time of computation of intermediates                       (      0.5 sec)
Calculating correlation correction                      ... done (      0.0 sec)

F12 correction                   :  -0.112209209309
HF basis set correction          :  -0.049123398037
Sum of the two                   :  -0.161332607346

Total time for F12 correction    :     3.904 sec
  .... cleaning up and leaving F12-CCSD

----------------------
COUPLED CLUSTER ENERGY
----------------------

Uncorrected 0th order energy               ...   -139.053228748
F12-HF basis set correction                ...     -0.049123398
Corrected 0th order energy                 ...   -139.102352146

E(CORR)(strong-pairs)                      ...     -0.360918360
E(CORR)(weak-pairs)                        ...     -0.000031529
E(CORR)(corrected)                         ...     -0.360949889
Uncorrected correlation energy             ...     -0.360918360
F12-correction to the correlation energy   ...     -0.112209209
Final F12 correlation energy               ...     -0.473159098

E(TOT)-before F12 corrections              ...   -139.414178637
E(TOT)-after HF correction                 ...   -139.463302035
E(TOT)-after all F12 corrections           ...   -139.575511244

Singles Norm <S|S>**1/2                    ...      0.040158226  
T1 diagnostic                              ...      0.010732737  

------------------
LARGEST AMPLITUDES
------------------
   6-> 18   6-> 18       0.043315
   7-> 18   7-> 18       0.043313
   8-> 18   8-> 18       0.043313
   5-> 10   5-> 10       0.036935
   8-> 11   8-> 11       0.028215
   7-> 11   7-> 11       0.028215
   6-> 11   6-> 11       0.028195
   5-> 17   5-> 17       0.027995
   5-> 17   5-> 10       0.027908
   5-> 10   5-> 17       0.027908
   8-> 18   8-> 11       0.026512
   8-> 11   8-> 18       0.026512
   7-> 11   7-> 18       0.026512
   7-> 18   7-> 11       0.026512
   6-> 11   6-> 18       0.026493
   6-> 18   6-> 11       0.026493


-------------------------------------------
DLPNO BASED TRIPLES CORRECTION
-------------------------------------------

Singles multiplier          ...  1.000000
TCutTNO                     ... 1.000e-09
TCutMP2Pairs                ... 1.000e-06
TCutDOStrong                ... 1.000e-02
TCutMKNStrong               ... 1.000e-02
TCutDOWeak                  ... 2.000e-02
TCutMKNWeak                 ... 1.000e-01

Parameters used in iterative triples
TCutFock                    ... 1.000e-03
TCutWeak                    ... 1.000e-08
TCutWeakGuess               ... 6.000e-06
TCutIter                    ... 1.000e-03
TNOScaleS                   ... 1.000e+01
TNOScaleW                   ... 1.000e+02
ETol                        ... 1.000e-04

Fragment selection                          .... not used
Number of Triples that are to be computed   ...        77

 . . . . . . . . .
10% done  
20% done  
30% done  
40% done  
50% done  
60% done  
70% done  
80% done  
90% done               (      0.321 sec)

-------------------
Triples Iterations:
-------------------

The T1 Strong/Weak pair is = 49/28 

Iter        E(Triple)      Delta-E            Time
  0     0.000000000000    0.006794277567      0.35
  1    -0.007096262385    0.000301984818      0.23
  2    -0.007133287536    0.000037025151      0.22

------------------
TRIPLES CORRECTION
------------------

The Conventional (T0) is    -0.006804050515
The Truncated    (T0) is    -0.006794277567
The corrected     (T) is    -0.007143060483

Triples timings:
Total time for T0               ...     0.348 sec
Total time for Iterative (T)    ...     0.457 sec
Total time of overall (T)       ...     0.870 sec

Triples List generation         ...     0.000 sec
TNO generation                  ...     0.024 sec
Pair density generation         ...     0.000 sec
Look up tables                  ...     0.000 sec
Generating 3-index integrals    ...     0.083 sec
  Make 4-ind.int. from 3-ind.int...     0.072 sec
  Projecting amplitudes (D + S) ...     0.007 sec
  Downprojecting integrals      ...     0.050 sec
  Energy contr. (sum over a,b,c)...     0.067 sec
Fitting ET(->0)                 ...     0.000 sec

Everything after 3-index        ...     0.239 sec

Timing details:
 TNO integrals                  ...     0.149 sec
   Reading 3-index integrals    ...     0.003 sec
   Sorting integrals            ...     0.026 sec
       Sorting integrals 1      ...     0.000 sec
       Sorting integrals 2      ...     0.014 sec
       Sorting integrals 3      ...     0.003 sec
       Sorting integrals 4      ...     0.000 sec
       Sorting integrals 5      ...     0.001 sec
       Sorting integrals 6      ...     0.007 sec
   Calculating local VM**-1/2   ...     0.010 sec
   Orthogonal. integrals        ...     0.025 sec
   Multipl. 3-index integrals   ...     0.086 sec
   All concerning IRIab (w/TNO) ...     0.027 sec

 Calculate W0/W1                ...     0.043 sec
 W 3-ext contribution           ...     0.024 sec
 W 3-int contribution           ...     0.006 sec
 Sorting W                      ...     0.011 sec

 V exchange contribution        ...     0.033 sec

 Timings for Triples without generation
     of 3-index integrals       ...     0.238 sec
       0 weak pairs             ...     0.238 sec
       1 weak pair              ...     0.000 sec
       2 weak pairs             ...     0.000 sec
       3 weak pairs             ...     0.000 sec
  Extra time for extrapolation  ...     0.000 sec

Number of Triples   (0, 1, 2, 3 weak pairs; overall):     77       0       0       0  (    77)
Number of Atoms     (0, 1, 2, 3 weak pairs; overall):    5.0     0.0     0.0     0.0  (     5)
Number of PAOs      (0, 1, 2, 3 weak pairs; overall):   51.0     0.0     0.0     0.0  (    51)
Number of AuxFcns   (0, 1, 2, 3 weak pairs; overall):  273.7     0.0     0.0     0.0  (   325)
Number of TNOs      (0, 1, 2, 3 weak pairs         ):   39.9     0.0     0.0     0.0
Aver. Number of NTNO, Atoms, PAOs, AuxFcns / Triples:     77    39.9     5.0    51.0   273.7

Triples Correction (T)                     ...     -0.007143060
Final correlation energy (without F12)     ...     -0.368092949
Final correlation energy (with F12)        ...     -0.480302158
F12-E(CCSD)                                ...   -139.575511244
F12-E(CCSD(T))                             ...   -139.582654305



------------------------------------------------------------------------------- 
                                     TIMINGS                                   
------------------------------------------------------------------------------- 


Total execution time                   ...        9.355 sec

Localization of occupied MO's          ...        0.405 sec (  4.3%)
Fock Matrix Formation                  ...        0.185 sec (  2.0%)
Global overlap, Fock, MKN matrices     ...        0.122 sec (  1.3%)
Differential overlap integrals         ...        0.432 sec (  4.6%)
Organizing maps                        ...        0.002 sec (  0.0%)
RI 3-index integral generations        ...        0.316 sec (  3.4%)
RI-PNO integral transformation         ...        0.465 sec (  5.0%)
Initial Guess                          ...        0.112 sec (  1.2%)
DIIS Solver                            ...        0.035 sec (  0.4%)
State Vector Update                    ...        0.001 sec (  0.0%)
Sigma-vector construction              ...        0.765 sec (  8.2%)
  <D|H|D>(0-ext)                       ...        0.026 sec (  3.4% of sigma)
  <D|H|D>(2-ext Fock)                  ...        0.001 sec (  0.1% of sigma)
  <D|H|D>(2-ext)                       ...        0.054 sec (  7.1% of sigma)
  <D|H|D>(4-ext)                       ...        0.109 sec ( 14.2% of sigma)
  <D|H|D>(4-ext-corr)                  ...        0.286 sec ( 37.4% of sigma)
  CCSD doubles correction              ...        0.006 sec (  0.7% of sigma)
  <S|H|S>                              ...        0.016 sec (  2.1% of sigma)
  <S|H|D>(1-ext)                       ...        0.006 sec (  0.7% of sigma)
  <S|H|D>(3-ext)                       ...        0.007 sec (  1.0% of sigma)
  Fock-dressing                        ...        0.073 sec (  9.5% of sigma)
  Singles amplitudes                   ...        0.008 sec (  1.1% of sigma)
  (ik|jl)-dressing                     ...        0.019 sec (  2.4% of sigma)
  (ij|ab),(ia|jb)-dressing             ...        0.049 sec (  6.4% of sigma)
Total Time for computing F12           ...        4.923 sec ( 52.6% of ALL)
Total Time for computing (T)           ...        0.871 sec (  9.3% of ALL)


Maximum memory used throughout the entire MDCI-calculation: 193.9 MB

-------------------------   --------------------
FINAL SINGLE POINT ENERGY      -139.582654304744
-------------------------   --------------------


                            ***************************************
                            *     ORCA property calculations      *
                            ***************************************


  WARNING: The energy has been calculated at the MDCI level but the densities
           used in the property calculations are still SCF densities
           MDCI response densities have not been calculated 
           use %mdci Density linearized end
           or  %mdci Density unrelaxed end
           or  %mdci Density orbopt end

                                    ---------------------
                                    Active property flags
                                    ---------------------
   (+) Dipole Moment


------------------------------------------------------------------------------
                       ORCA ELECTRIC PROPERTIES CALCULATION
------------------------------------------------------------------------------

Dipole Moment Calculation                       ... on
Quadrupole Moment Calculation                   ... off
Polarizability Calculation                      ... off
GBWName                                         ... ch3f_lw1x-jun_Compound_1.gbw
Electron density                                ... ch3f_lw1x-jun_Compound_1.scfp
The origin for moment calculation is the CENTER OF MASS  = (-0.000000,  0.000000  0.205194)

-------------
DIPOLE MOMENT
-------------
                                X             Y             Z
Electronic contribution:      0.00001       0.00000       2.82143
Nuclear contribution   :     -0.00000       0.00000      -3.69349
                        -----------------------------------------
Total Dipole Moment    :      0.00000       0.00000      -0.87206
                        -----------------------------------------
Magnitude (a.u.)       :      0.87206
Magnitude (Debye)      :      2.21659



--------------------
Rotational spectrum 
--------------------
 
Rotational constants in cm-1:     5.286296     0.858923     0.858923 
Rotational constants in MHz : 158479.165358 25749.855499 25749.855465 

 Dipole components along the rotational axes: 
x,y,z [a.u.] :     0.872058     0.000000    -0.000004 
x,y,z [Debye]:     2.216594     0.000000    -0.000011 

 

Timings for individual modules:

Sum of individual times         ...       13.811 sec (=   0.230 min)
GTO integral calculation        ...        1.165 sec (=   0.019 min)   8.4 %
SCF iterations                  ...        2.336 sec (=   0.039 min)  16.9 %
MDCI module                     ...       10.310 sec (=   0.172 min)  74.7 %


################################################################################


                                COMPOUND JOB  2 
Basename: ch3f_lw1x-jun_Compound_2
NOTE: please remember that MaxCore and PAL settings will be ignored.

################################################################################

================================================================================
                                       INPUT FILE
================================================================================
NAME = ch3f_lw1x-jun_Compound_2.inp
|  1>     ! DefGrid3 RIJCOSX TightPNO DLPNO-CCSD(T1)-F12 MiniPrint NoPop
|  2>     %Basis
|  3>       Basis "jun-cc-pV(T+d)Z"
|  4>       AuxJ  "AutoAux"
|  5>       AuxC  "AutoAux"
|  6>       CABS  "AutoAux"
|  7>     End
|  8> 
|  9>                          ****END OF INPUT****
================================================================================
Warning! AutoAux has not been tested for CABS - use at your own risk!
================================================================================

----- Orbital basis set information -----
Your calculation utilizes the basis: jun-cc-pV(T+d)Z 
  E. Papajak, D. G. Truhlar, J. Chem. Theory Comput. 7, 10-18 (2011).

----- AuxJ basis set information -----
Your calculation utilizes the AutoAux generation procedure.
  G. L. Stoychev, A. A. Auer, F. Neese, J. Chem. Theory Comput. 13, 554 (2017)

----- AuxC basis set information -----
Your calculation utilizes the AutoAux generation procedure.
  G. L. Stoychev, A. A. Auer, F. Neese, J. Chem. Theory Comput. 13, 554 (2017)

----- CABS information -----
Your calculation utilizes the AutoAux generation procedure.
  G. L. Stoychev, A. A. Auer, F. Neese, J. Chem. Theory Comput. 13, 554 (2017)


                    <<< The CABS basis set will be decontracted >>>

================================================================================
                                        WARNINGS
                       Please study these warnings very carefully!
================================================================================


WARNING: Post HF methods need fully converged wavefunctions
  ===> : Setting SCFConvForced true
         You can overwrite this default with %scf ConvForced false 


WARNING: MDCI localization with Augmented Hessian Foster-Boys
  ===> : Switching off randomization!

INFO   : the flag for use of the SHARK integral package has been found!


                       ****************************
                       * Single Point Calculation *
                       ****************************

---------------------------------
CARTESIAN COORDINATES (ANGSTROEM)
---------------------------------
  F      0.000000    0.000000    0.750386
  C      0.000000    0.000000   -0.629363
  H     -1.026909    0.000000   -0.992430
  H      0.513454    0.889329   -0.992430
  H      0.513454   -0.889329   -0.992430

----------------------------
CARTESIAN COORDINATES (A.U.)
----------------------------
  NO LB      ZA    FRAG     MASS         X           Y           Z
   0 F     9.0000    0    18.998    0.000000    0.000000    1.418024
   1 C     6.0000    0    12.011    0.000000    0.000000   -1.189324
   2 H     1.0000    0     1.008   -1.940577    0.000000   -1.875421
   3 H     1.0000    0     1.008    0.970287    1.680588   -1.875421
   4 H     1.0000    0     1.008    0.970287   -1.680588   -1.875421



           ************************************************************
           *        Program running with 6 parallel MPI-processes     *
           *              working on a common directory               *
           ************************************************************
------------------------------------------------------------------------------
                   ___                                                        
                  /   \      - P O W E R E D   B Y -                         
                 /     \                                                     
                 |  |  |   _    _      __       _____    __    __             
                 |  |  |  | |  | |    /  \     |  _  \  |  |  /  |          
                  \  \/   | |  | |   /    \    | | | |  |  | /  /          
                 / \  \   | |__| |  /  /\  \   | |_| |  |  |/  /          
                |  |  |   |  __  | /  /__\  \  |    /   |      \           
                |  |  |   | |  | | |   __   |  |    \   |  |\   \          
                \     /   | |  | | |  |  |  |  | |\  \  |  | \   \       
[...]

------------------------------------------------------------------------------
                                ORCA  MP2 
------------------------------------------------------------------------------

Freezing NCore=0 chemical core electrons
Initializing SHARK ... done


------------------------------------------------------------------------------
                           ORCA ORBITAL LOCALIZATION
------------------------------------------------------------------------------

Input orbitals are from                  ... ch3f_lw1x-jun_Compound_4.gbw
Output orbitals are to                   ... ch3f_lw1x-jun_Compound_4.loc
Max. number of iterations                ... 128
Localizations seeded randomly            ... off
Convergence tolerance                    ... 1.000e-06
Treshold for strong local MOs            ... 9.500e-01
Treshold for bond MOs                    ... 8.500e-01
Operator                                 ... 0
Orbital range for localization           ... 0 to 8
Localization criterion                   ... FOSTER-BOYS (AUGMENTED HESSIAN)
Doing the dipole integrals     ... o.k.
Initial value of the localization sum :    16.423755
ITERATION   0 : L=   24.6394223622 DL=  8.22e+00 (AVERGE_DL)=    0.4777164193 
ITERATION   1 : L=   25.0352695251 DL=  3.96e-01 (AVERGE_DL)=    0.1048606433 
ITERATION   2 : L=   25.0401189600 DL=  4.85e-03 (AVERGE_DL)=    0.0116063141 
ITERATION   3 : L=   25.0402285257 DL=  1.10e-04 (AVERGE_DL)=    0.0017445602 
ITERATION   4 : L=   25.0402334829 DL=  4.96e-06 (AVERGE_DL)=    0.0003710804 
ITERATION   5 : L=   25.0402345185 DL=  1.04e-06 (AVERGE_DL)=    0.0001696113 
ITERATION   6 : L=   25.0402355840 DL=  1.07e-06 (AVERGE_DL)=    0.0001720320 
ITERATION   7 : L=   25.0402368517 DL=  1.27e-06 (AVERGE_DL)=    0.0001876564 
ITERATION   8 : L=   25.0402382604 DL=  1.41e-06 (AVERGE_DL)=    0.0001978165 
ITERATION   9 : L=   25.0402397768 DL=  1.52e-06 (AVERGE_DL)=    0.0002052369 
ITERATION  10 : L=   25.0402413919 DL=  1.62e-06 (AVERGE_DL)=    0.0002118079 
ITERATION  11 : L=   25.0402431074 DL=  1.72e-06 (AVERGE_DL)=    0.0002182949 
ITERATION  12 : L=   25.0402449280 DL=  1.82e-06 (AVERGE_DL)=    0.0002248843 
ITERATION  13 : L=   25.0402468600 DL=  1.93e-06 (AVERGE_DL)=    0.0002316627 
ITERATION  14 : L=   25.0402489103 DL=  2.05e-06 (AVERGE_DL)=    0.0002386454 
ITERATION  15 : L=   25.0402510857 DL=  2.18e-06 (AVERGE_DL)=    0.0002458217 
ITERATION  16 : L=   25.0402533940 DL=  2.31e-06 (AVERGE_DL)=    0.0002532196 
ITERATION  17 : L=   25.0402558430 DL=  2.45e-06 (AVERGE_DL)=    0.0002608176 
ITERATION  18 : L=   25.0402584409 DL=  2.60e-06 (AVERGE_DL)=    0.0002686360 
ITERATION  19 : L=   25.0402611971 DL=  2.76e-06 (AVERGE_DL)=    0.0002766938 
ITERATION  20 : L=   25.0402641207 DL=  2.92e-06 (AVERGE_DL)=    0.0002849759 
ITERATION  21 : L=   25.0402672216 DL=  3.10e-06 (AVERGE_DL)=    0.0002934894 
ITERATION  22 : L=   25.0402705107 DL=  3.29e-06 (AVERGE_DL)=    0.0003022667 
ITERATION  23 : L=   25.0402739987 DL=  3.49e-06 (AVERGE_DL)=    0.0003112676 
ITERATION  24 : L=   25.0402776978 DL=  3.70e-06 (AVERGE_DL)=    0.0003205530 
ITERATION  25 : L=   25.0402816200 DL=  3.92e-06 (AVERGE_DL)=    0.0003300749 
ITERATION  26 : L=   25.0402857789 DL=  4.16e-06 (AVERGE_DL)=    0.0003398900 
ITERATION  27 : L=   25.0402901877 DL=  4.41e-06 (AVERGE_DL)=    0.0003499536 
ITERATION  28 : L=   25.0402948617 DL=  4.67e-06 (AVERGE_DL)=    0.0003603243 
ITERATION  29 : L=   25.0402998156 DL=  4.95e-06 (AVERGE_DL)=    0.0003709538 
ITERATION  30 : L=   25.0403050662 DL=  5.25e-06 (AVERGE_DL)=    0.0003819039 
ITERATION  31 : L=   25.0403106299 DL=  5.56e-06 (AVERGE_DL)=    0.0003931237 
ITERATION  32 : L=   25.0403165254 DL=  5.90e-06 (AVERGE_DL)=    0.0004046787 
ITERATION  33 : L=   25.0403227708 DL=  6.25e-06 (AVERGE_DL)=    0.0004165130 
ITERATION  34 : L=   25.0403293867 DL=  6.62e-06 (AVERGE_DL)=    0.0004286899 
ITERATION  35 : L=   25.0403363935 DL=  7.01e-06 (AVERGE_DL)=    0.0004411718 
ITERATION  36 : L=   25.0403438133 DL=  7.42e-06 (AVERGE_DL)=    0.0004539878 
ITERATION  37 : L=   25.0403516691 DL=  7.86e-06 (AVERGE_DL)=    0.0004671365 
ITERATION  38 : L=   25.0403599849 DL=  8.32e-06 (AVERGE_DL)=    0.0004806207 
ITERATION  39 : L=   25.0403687860 DL=  8.80e-06 (AVERGE_DL)=    0.0004944442 
ITERATION  40 : L=   25.0403780988 DL=  9.31e-06 (AVERGE_DL)=    0.0005086136 
ITERATION  41 : L=   25.0403879508 DL=  9.85e-06 (AVERGE_DL)=    0.0005231320 
ITERATION  42 : L=   25.0403983709 DL=  1.04e-05 (AVERGE_DL)=    0.0005380040 
ITERATION  43 : L=   25.0404093892 DL=  1.10e-05 (AVERGE_DL)=    0.0005532285 
ITERATION  44 : L=   25.0404210371 DL=  1.16e-05 (AVERGE_DL)=    0.0005688186 
ITERATION  45 : L=   25.0404333472 DL=  1.23e-05 (AVERGE_DL)=    0.0005847626 
ITERATION  46 : L=   25.0404463533 DL=  1.30e-05 (AVERGE_DL)=    0.0006010662 
ITERATION  47 : L=   25.0404600907 DL=  1.37e-05 (AVERGE_DL)=    0.0006177328 
ITERATION  48 : L=   25.0404745958 DL=  1.45e-05 (AVERGE_DL)=    0.0006347582 
ITERATION  49 : L=   25.0404899062 DL=  1.53e-05 (AVERGE_DL)=    0.0006521438 
ITERATION  50 : L=   25.0405060613 DL=  1.62e-05 (AVERGE_DL)=    0.0006698889 
ITERATION  51 : L=   25.0405231006 DL=  1.70e-05 (AVERGE_DL)=    0.0006879781 
ITERATION  52 : L=   25.0405410656 DL=  1.80e-05 (AVERGE_DL)=    0.0007064189 
ITERATION  53 : L=   25.0405599982 DL=  1.89e-05 (AVERGE_DL)=    0.0007251946 
ITERATION  54 : L=   25.0405799422 DL=  1.99e-05 (AVERGE_DL)=    0.0007443101 
ITERATION  55 : L=   25.0406009416 DL=  2.10e-05 (AVERGE_DL)=    0.0007637522 
ITERATION  56 : L=   25.0406230413 DL=  2.21e-05 (AVERGE_DL)=    0.0007835063 
ITERATION  57 : L=   25.0406462870 DL=  2.32e-05 (AVERGE_DL)=    0.0008035620 
ITERATION  58 : L=   25.0406707244 DL=  2.44e-05 (AVERGE_DL)=    0.0008239046 
ITERATION  59 : L=   25.0406964002 DL=  2.57e-05 (AVERGE_DL)=    0.0008445205 
ITERATION  60 : L=   25.0407233601 DL=  2.70e-05 (AVERGE_DL)=    0.0008653827 
ITERATION  61 : L=   25.0407516512 DL=  2.83e-05 (AVERGE_DL)=    0.0008864896 
ITERATION  62 : L=   25.0407813195 DL=  2.97e-05 (AVERGE_DL)=    0.0009078108 
ITERATION  63 : L=   25.0408124091 DL=  3.11e-05 (AVERGE_DL)=    0.0009292997 
ITERATION  64 : L=   25.0408449651 DL=  3.26e-05 (AVERGE_DL)=    0.0009509646 
ITERATION  65 : L=   25.0408790304 DL=  3.41e-05 (AVERGE_DL)=    0.0009727578 
ITERATION  66 : L=   25.0409146490 DL=  3.56e-05 (AVERGE_DL)=    0.0009946885 
ITERATION  67 : L=   25.0409518510 DL=  3.72e-05 (AVERGE_DL)=    0.0010165584 
ITERATION  68 : L=   25.0409906848 DL=  3.88e-05 (AVERGE_DL)=    0.0010386128 
ITERATION  69 : L=   25.0410311738 DL=  4.05e-05 (AVERGE_DL)=    0.0010605161 
ITERATION  70 : L=   25.0410733568 DL=  4.22e-05 (AVERGE_DL)=    0.0010824735 
ITERATION  71 : L=   25.0411172562 DL=  4.39e-05 (AVERGE_DL)=    0.0011042777 
ITERATION  72 : L=   25.0411628945 DL=  4.56e-05 (AVERGE_DL)=    0.0011259350 
ITERATION  73 : L=   25.0412102893 DL=  4.74e-05 (AVERGE_DL)=    0.0011473985 
ITERATION  74 : L=   25.0412594572 DL=  4.92e-05 (AVERGE_DL)=    0.0011686640 
ITERATION  75 : L=   25.0413104006 DL=  5.09e-05 (AVERGE_DL)=    0.0011895765 
ITERATION  76 : L=   25.0413631202 DL=  5.27e-05 (AVERGE_DL)=    0.0012101376 
ITERATION  77 : L=   25.0414176109 DL=  5.45e-05 (AVERGE_DL)=    0.0012302970 
ITERATION  78 : L=   25.0414738584 DL=  5.62e-05 (AVERGE_DL)=    0.0012499721 
ITERATION  79 : L=   25.0415318430 DL=  5.80e-05 (AVERGE_DL)=    0.0012691271 
ITERATION  80 : L=   25.0415915350 DL=  5.97e-05 (AVERGE_DL)=    0.0012876766 
ITERATION  81 : L=   25.0416528988 DL=  6.14e-05 (AVERGE_DL)=    0.0013055845 
ITERATION  82 : L=   25.0417158879 DL=  6.30e-05 (AVERGE_DL)=    0.0013227616 
ITERATION  83 : L=   25.0417804507 DL=  6.46e-05 (AVERGE_DL)=    0.0013391825 
ITERATION  84 : L=   25.0418465230 DL=  6.61e-05 (AVERGE_DL)=    0.0013547480 
ITERATION  85 : L=   25.0419140361 DL=  6.75e-05 (AVERGE_DL)=    0.0013694397 
ITERATION  86 : L=   25.0419829089 DL=  6.89e-05 (AVERGE_DL)=    0.0013831606 
ITERATION  87 : L=   25.0420530562 DL=  7.01e-05 (AVERGE_DL)=    0.0013958993 
DETECTED SLOW CONVERGENCE - QUITTING

------------------------------------------------------
AUGMENTED HESSIAN OPTIMIZATION OF FOSTER-BOYS ORBITALS
------------------------------------------------------

Spin operator:           0
Orbital window:          0 to 8
Number of iterations:    128
Gradient tolerance:      1.000e-06
Number of pairs:         36
Davidson threshold:      2000
Diagonalization method:  LAPACK
Iter:    0   L: 25.0420530562   Grad. norm: 9.468400e-03
Iter:    1   L: 25.0452361085   Grad. norm: 6.743606e-02
Iter:    2   L: 25.0453028175   Grad. norm: 3.354432e-04
   *** Likely close to a maximum now. ***
       Augmented Hessian eigenvalues:  1.33e-08 -2.29e-02 -7.13e-01 -7.13e-01 ... 
Iter:    3   L: 25.0453028241   Grad. norm: 1.052640e-07
LOCALIZATION HAS CONVERGED.

Eigenvalues of the Hessian:
  0 -2.292e-02
  1 -7.129e-01
  2 -7.129e-01
  3 -1.375e+00
  4 -1.484e+00
  5 -1.484e+00
  6 -3.315e+00
  7 -3.636e+00
  8 -3.636e+00
  9 -5.773e+00
    ...


------------------------------------------------------------------------------- 
                    LOCALIZED MOLECULAR ORBITAL COMPOSITIONS                   
------------------------------------------------------------------------------- 

The Mulliken populations for each LMO on each atom are computed
The LMO`s will be ordered according to atom index and type
  (A) Strongly localized MO`s have populations of >=0.950 on one atom
  (B) Two center bond orbitals have populations of >=0.850 on two atoms
  (C) Other MO`s are considered to be `delocalized`

FOUND  -   5 strongly local MO`s
       -   4 two center bond MO`s
       -   0 significantly delocalized MO`s

Rather strongly localized orbitals:
MO   4:   1C  -   1.002110
MO   3:   0F  -   0.988086
MO   2:   0F  -   0.988086
MO   1:   0F  -   0.988084
MO   0:   0F  -   1.000075
Bond-like localized orbitals:
MO   8:   4H  -   0.510087  and   1C  -   0.516878
MO   7:   3H  -   0.510088  and   1C  -   0.516878
MO   6:   2H  -   0.510062  and   1C  -   0.516920
MO   5:   1C  -   0.279276  and   0F  -   0.724487
Localized MO's were stored in: ch3f_lw1x-jun_Compound_4.loc



Calculating differential overlap integrals ... ok
Threshold for domain construction in prescreening: TCutDOPre = 3.0e-02

--------------------------
ELECTRON PAIR PRESCREENING
--------------------------

Dipole-based pair screening          .... used

   TCutDOij = 1.000000e-05
   TCutPre  = 1.000000e-06
   .... Finished loop over pairs
Total time spent in the prescreening                  ...     0.000 sec
sum of pair energies estimated for screened out pairs ...       0.000000000000 Eh

---------------------------
MAP CONSTRUCTION THRESHOLDS
---------------------------
    TCutMKN     ...     1.0e-03
    TCutDO      ...     5.0e-03
    TCutC(MO)   ...     1.0e-03
    TCutC(PAO)  ...     1.0e-03

--------------------------------
LOCAL RI TRANSFORMATION (IAVPAO)
--------------------------------

Orbital window:       0 to 8
Number of PAOs:     128
Basis functions:    128 (48 shells)
Aux. functions:     606 (170 shells)
Use SHARK:           on

Processing maps (0.0 sec)
Average map sizes:
   Aux shells -> MOs               9.0
   Aux shells -> PAOs            128.0
   MOs        -> AO shells        44.3
   PAOs       -> AO shells        48.0

Calculating integrals (0.0 sec, 5.333 MB)
Sorting integrals (0.0 sec, 5.326 MB)
Total time for the integral transformation: 0.1 sec

----------------------------
Local MP2 Energy Calculation
----------------------------
Number of orbital pairs included:     45
Truncation parameters:
    PAOOverlapThresh    =        1.000e-08
    TCutPNO             =        1.000e-09

Spin component scaling                      .... not used
MP2 energy scaling factor                   .... 1.000

Formation of semicanonical amplitudes.
 10% done.
 20% done.
 30% done.
 40% done.
 50% done.
 60% done.
 70% done.
 80% done.
 90% done.
100% done.

Finished the LMP2 guess in 0.2 sec.

Average number of PAOs per pair        128.0
Average number of nrPAOs per pair      119.0
Average number of PNOs per pair         70.0
Average number of AUX  per pair        575.2

Semicanonical MP2 energy:                   -0.524876815944 Eh
Semicanonical MP2 energy in PNO basis:      -0.524868436837 Eh

Initial amplitudes guess done. Entering DLPNO-MP2 iteration loop:
   Max. no of iterations          ...  100
   Energy convergence tolerance   ...    1.0e-06 Eh
   Residual convergence tolerance ...    5.0e-06
   Fock matrix cutoff             ...    1.0e-05 Eh
   Max # vectors in DIIS          ...  7
   Start iteration of DIIS        ...  0
   Levelshift                     ...  2.000e-01 Eh
   Damping before turning on DIIS ...  5.000e-01
   Damping after turning on DIIS  ...  0.000e+00

                           *** Turning on DIIS ***
Iter=   0:  ECORR= -0.535064796345  DE=   1.0e-02 RMAX=   4.3e-02
Iter=   1:  ECORR= -0.542035107897  DE=   7.0e-03 RMAX=   2.0e-02
Iter=   2:  ECORR= -0.543072917614  DE=   1.0e-03 RMAX=   4.4e-03
Iter=   3:  ECORR= -0.543361686584  DE=   2.9e-04 RMAX=   1.4e-03
Iter=   4:  ECORR= -0.543393483249  DE=   3.2e-05 RMAX=   2.0e-04
Iter=   5:  ECORR= -0.543395298234  DE=   1.8e-06 RMAX=   5.8e-05
Iter=   6:  ECORR= -0.543395040661  DE=   2.6e-07 RMAX=   5.5e-06
Iter=   7:  ECORR= -0.543394996456  DE=   4.4e-08 RMAX=   1.2e-06 => CONVERGED

Finished the DLPNO-MP2 iterations in 0.3 sec.

LMP2 correlation energy (all non-screened pairs)      ...     -0.543394996456 Eh
Semicanonical PNO correction to energy                ...     -0.000008379107 Eh
Sum of pair energies estimated for screened out pairs ...      0.000000000000 Eh
                                                         -----------------------
Total:                                                ...     -0.543403375563 Eh

------------------------------------------------------
 DLPNO-MP2 CORRELATION ENERGY:      -0.543403375563 Eh
------------------------------------------------------

TIMINGS FOR DLPNO-MP2:
Localization                             ...        0.104 sec
Differential overlap integrals           ...        0.436 sec
Prescreening                             ...        0.108 sec
Map setup                                ...        0.001 sec
(ia|v) trafo                             ...        0.052 sec
Semicanonical amplitudes                 ...        0.173 sec
PNO construction                         ...        0.024 sec
DLPNO-MP2 iterations                     ...        0.256 sec
                                             ----------------
Total time                                          1.543 sec


---------------------------------------
MP2 TOTAL ENERGY:     -139.733268387 Eh
---------------------------------------

Maximum memory used throughout the entire MP2-calculation: 108.8 MB

-------------------------   --------------------
FINAL SINGLE POINT ENERGY      -139.733268386500
-------------------------   --------------------


                            ***************************************
                            *     ORCA property calculations      *
                            ***************************************


  WARNING: The energy has been calculated at the MP2 level but the densities
           used in the property calculations are still SCF densities
           MP2 response densities have not been calculated 
           use %mp2 Density relaxed end
           or  %mp2 Density unrelaxed end

                                    ---------------------
                                    Active property flags
                                    ---------------------
   (+) Dipole Moment


------------------------------------------------------------------------------
                       ORCA ELECTRIC PROPERTIES CALCULATION
------------------------------------------------------------------------------

Dipole Moment Calculation                       ... on
Quadrupole Moment Calculation                   ... off
Polarizability Calculation                      ... off
GBWName                                         ... ch3f_lw1x-jun_Compound_4.gbw
Electron density                                ... ch3f_lw1x-jun_Compound_4.scfp
The origin for moment calculation is the CENTER OF MASS  = (-0.000000,  0.000000  0.205194)

-------------
DIPOLE MOMENT
-------------
                                X             Y             Z
Electronic contribution:      0.00001       0.00000       2.89725
Nuclear contribution   :     -0.00000       0.00000      -3.69349
                        -----------------------------------------
Total Dipole Moment    :      0.00001       0.00000      -0.79624
                        -----------------------------------------
Magnitude (a.u.)       :      0.79624
Magnitude (Debye)      :      2.02388



--------------------
Rotational spectrum 
--------------------
 
Rotational constants in cm-1:     5.286296     0.858923     0.858923 
Rotational constants in MHz : 158479.165358 25749.855499 25749.855465 

 Dipole components along the rotational axes: 
x,y,z [a.u.] :     0.796238     0.000000    -0.000012 
x,y,z [Debye]:     2.023877     0.000000    -0.000032 

 

Timings for individual modules:

Sum of individual times         ...        7.586 sec (=   0.126 min)
GTO integral calculation        ...        0.973 sec (=   0.016 min)  12.8 %
Relativistic integrals          ...        1.001 sec (=   0.017 min)  13.2 %
SCF iterations                  ...        3.184 sec (=   0.053 min)  42.0 %
MP2 module                      ...        2.427 sec (=   0.040 min)  32.0 %
================================================================================

----- Orbital basis set information -----
Your calculation utilizes the basis: def2-SVP
   F. Weigend and R. Ahlrichs, Phys. Chem. Chem. Phys. 7, 3297 (2005).



----------------------------------------------------------------------------------------------
                                        COMPOUND BLOCK                                        
                                     SUMMARY OF VARIABLES                                     
----------------------------------------------------------------------------------------------

Variable Name                                           Value             Evaluation String
-------------                                           -----             -----------------
HF_DZ                                    |            -139.10235215    |  
EC_DZ                                    |              -0.48030216    |  
CC_DZ                                    |              -0.47315910    |  EC_DZ-T_DZ
T_DZ                                     |              -0.00714306    |  
HF_TZ                                    |            -139.10696486    |  
EC_TZ                                    |              -0.50587472    |  
CC_TZ                                    |              -0.49194071    |  EC_TZ-T_TZ
T_TZ                                     |              -0.01393401    |  
HF_CBS                                   |            -139.10766442    |  HF_TZ-(HF_TZ-HF_DZ)*3^-5/(3^-5-2^-5)
CC_CBS                                   |              -0.49515931    |  CC_TZ-(CC_TZ-CC_DZ)*3^-4.7405/(3^-4.7405-2^-4.7405)
T_CBS                                    |              -0.01903371    |  T_TZ-(T_TZ-T_DZ)*3^-2.0879/(3^-2.0879-2^-2.0879)
MP_FC                                    |            -139.53814253    |  
MP_FU                                    |            -139.73326839    |  
MP_CV                                    |              -0.19512585    |  MP_FU-MP_FC
LW1X                                     |            -139.81698329    |  HF_CBS+CC_CBS+T_CBS+MP_CV
                             ****ORCA TERMINATED NORMALLY****
TOTAL RUN TIME: 0 days 0 hours 1 minutes 30 seconds 606 msec
