
                                 *****************
                                 * O   R   C   A *
                                 *****************

                                            #,                                       
                                            ###                                      
                                            ####                                     
                                            #####                                    
                                            ######                                   
                                           ########,                                 
                                     ,,################,,,,,                         
                               ,,#################################,,                 
                          ,,##########################################,,             
                       ,#########################################, ''#####,          
                    ,#############################################,,   '####,        
                  ,##################################################,,,,####,       
                ,###########''''           ''''###############################       
              ,#####''   ,,,,##########,,,,          '''####'''          '####       
            ,##' ,,,,###########################,,,                        '##       
           ' ,,###''''                  '''############,,,                           
         ,,##''                                '''############,,,,        ,,,,,,###''
      ,#''                                            '''#######################'''  
     '                                                          ''''####''''         
             ,#######,   #######,   ,#######,      ##                                
            ,#'     '#,  ##    ##  ,#'     '#,    #''#        ######   ,####,        
            ##       ##  ##   ,#'  ##            #'  '#       #        #'  '#        
            ##       ##  #######   ##           ,######,      #####,   #    #        
            '#,     ,#'  ##    ##  '#,     ,#' ,#      #,         ##   #,  ,#        
             '#######'   ##     ##  '#######'  #'      '#     #####' # '####'        



                  #######################################################
                  #                        -***-                        #
                  #          Department of theory and spectroscopy      #
                  #    Directorship and core code : Frank Neese         #
                  #        Max Planck Institute fuer Kohlenforschung    #
                  #                Kaiser Wilhelm Platz 1               #
                  #                 D-45470 Muelheim/Ruhr               #
                  #                      Germany                        #
                  #                                                     #
                  #                  All rights reserved                #
                  #                        -***-                        #
                  #######################################################


                         Program Version 5.0.1 -  RELEASE  -


 With contributions from (in alphabetic order):
   Daniel Aravena         : Magnetic Suceptibility
   Michael Atanasov       : Ab Initio Ligand Field Theory (pilot matlab implementation)
   Alexander A. Auer      : GIAO ZORA, VPT2 properties, NMR spectrum
   Ute Becker             : Parallelization
   Giovanni Bistoni       : ED, misc. LED, open-shell LED, HFLD
   Martin Brehm           : Molecular dynamics
   Dmytro Bykov           : SCF Hessian
   Vijay G. Chilkuri      : MRCI spin determinant printing, contributions to CSF-ICE
   Dipayan Datta          : RHF DLPNO-CCSD density
   Achintya Kumar Dutta   : EOM-CC, STEOM-CC
   Dmitry Ganyushin       : Spin-Orbit,Spin-Spin,Magnetic field MRCI
   Miquel Garcia          : C-PCM and meta-GGA Hessian, CC/C-PCM, Gaussian charge scheme
   Yang Guo               : DLPNO-NEVPT2, F12-NEVPT2, CIM, IAO-localization
   Andreas Hansen         : Spin unrestricted coupled pair/coupled cluster methods
   Benjamin Helmich-Paris : MC-RPA, TRAH-SCF, COSX integrals
   Lee Huntington         : MR-EOM, pCC
   Robert Izsak           : Overlap fitted RIJCOSX, COSX-SCS-MP3, EOM
   Marcus Kettner         : VPT2
   Christian Kollmar      : KDIIS, OOCD, Brueckner-CCSD(T), CCSD density, CASPT2, CASPT2-K
   Simone Kossmann        : Meta GGA functionals, TD-DFT gradient, OOMP2, MP2 Hessian
   Martin Krupicka        : Initial AUTO-CI
   Lucas Lang             : DCDCAS
   Marvin Lechner         : AUTO-CI (C++ implementation), FIC-MRCC
   Dagmar Lenk            : GEPOL surface, SMD
   Dimitrios Liakos       : Extrapolation schemes; Compound Job, initial MDCI parallelization
   Dimitrios Manganas     : Further ROCIS development; embedding schemes
   Dimitrios Pantazis     : SARC Basis sets
   Anastasios Papadopoulos: AUTO-CI, single reference methods and gradients
   Taras Petrenko         : DFT Hessian,TD-DFT gradient, ASA, ECA, R-Raman, ABS, FL, XAS/XES, NRVS
   Peter Pinski           : DLPNO-MP2, DLPNO-MP2 Gradient
   Christoph Reimann      : Effective Core Potentials
   Marius Retegan         : Local ZFS, SOC
   Christoph Riplinger    : Optimizer, TS searches, QM/MM, DLPNO-CCSD(T), (RO)-DLPNO pert. Triples
   Tobias Risthaus        : Range-separated hybrids, TD-DFT gradient, RPA, STAB
   Michael Roemelt        : Original ROCIS implementation
   Masaaki Saitow         : Open-shell DLPNO-CCSD energy and density
   Barbara Sandhoefer     : DKH picture change effects
   Avijit Sen             : IP-ROCIS
   Kantharuban Sivalingam : CASSCF convergence, NEVPT2, FIC-MRCI
   Bernardo de Souza      : ESD, SOC TD-DFT
   Georgi Stoychev        : AutoAux, RI-MP2 NMR, DLPNO-MP2 response
   Willem Van den Heuvel  : Paramagnetic NMR
   Boris Wezisla          : Elementary symmetry handling
   Frank Wennmohs         : Technical directorship


 We gratefully acknowledge several colleagues who have allowed us to
 interface, adapt or use parts of their codes:
   Stefan Grimme, W. Hujo, H. Kruse, P. Pracht,  : VdW corrections, initial TS optimization,
                  C. Bannwarth, S. Ehlert          DFT functionals, gCP, sTDA/sTD-DF
   Ed Valeev, F. Pavosevic, A. Kumar             : LibInt (2-el integral package), F12 methods
   Garnet Chan, S. Sharma, J. Yang, R. Olivares  : DMRG
   Ulf Ekstrom                                   : XCFun DFT Library
   Mihaly Kallay                                 : mrcc  (arbitrary order and MRCC methods)
   Jiri Pittner, Ondrej Demel                    : Mk-CCSD
   Frank Weinhold                                : gennbo (NPA and NBO analysis)
   Christopher J. Cramer and Donald G. Truhlar   : smd solvation model
   Lars Goerigk                                  : TD-DFT with DH, B97 family of functionals
   V. Asgeirsson, H. Jonsson                     : NEB implementation
   FAccTs GmbH                                   : IRC, NEB, NEB-TS, DLPNO-Multilevel, CI-OPT
                                                   MM, QMMM, 2- and 3-layer-ONIOM, Crystal-QMMM,
                                                   LR-CPCM, SF, NACMEs, symmetry and pop. for TD-DFT,
                                                   nearIR, NL-DFT gradient (VV10), updates on ESD,
                                                   ML-optimized integration grids
   S Lehtola, MJT Oliveira, MAL Marques          : LibXC Library
   Liviu Ungur et al                             : ANISO software


 Your calculation uses the libint2 library for the computation of 2-el integrals
 For citations please refer to: http://libint.valeyev.net

 Your ORCA version has been built with support for libXC version: 5.1.0
 For citations please refer to: https://tddft.org/programs/libxc/

 This ORCA versions uses:
   CBLAS   interface :  Fast vector & matrix operations
   LAPACKE interface :  Fast linear algebra routines
   SCALAPACK package :  Parallel linear algebra routines
   Shared memory     :  Shared parallel matrices
   BLAS/LAPACK       :  OpenBLAS 0.3.15  USE64BITINT DYNAMIC_ARCH NO_AFFINITY SkylakeX SINGLE_THREADED
        Core in use  :  SkylakeX
   Copyright (c) 2011-2014, The OpenBLAS Project




################################################################################


                                COMPOUND JOB MainJOB 
Basename: ch3i_lw1x-p34_Compound_0

################################################################################

================================================================================
                                       INPUT FILE
================================================================================
NAME = ch3i_lw1x-p34_Compound_0.inp
|  1> %Maxcore 2000
|  2>  %Pal nprocs 30 End
|  3>  
|  4>  * xyz 0 1
|  5>  I       -0.000000   -0.000000    0.324673 
|  6>  C       -0.000000   -0.000000   -1.802260 
|  7>  H        0.000000    1.032733   -2.131368 
|  8>  H        0.894373   -0.516367   -2.131368 
|  9>  H       -0.894373   -0.516367   -2.131368 
| 10>  *
| 11>  
| 12> 
| 13>                          ****END OF INPUT****
================================================================================
================================================================================

cite the ECPs for I  [Def2-ECP] as follows:
Ce-Yb(ecp-28): M. Dolg, H. Stoll, H.Preuss, J. Chem. Phys., 1989, 90, 1730-1734.
Y-Cd(ecp-28), Hf-Hg(ecp-46): D. Andrae,U. Haeussermann, M. Dolg, H. Stoll, H. Preuss, Theor. Chim. Acta, 1990, 77, 123-141.
In-Sb(ecp-28), Tl-Bi(ecp-46): B. Metz, H. Stoll, M. Dolg, J. Chem. Phys., 2000, 113, 2563-2569.
Te-Xe(ecp-28), Po-Rn(ecp-46): K. A. Peterson, D. Figgen, E. Goll, H. Stoll, M. Dolg, J. Chem. Phys., 2003, 119, 11113-11123.
Rb(ecp-28), Cs(ecp-46): T. Leininger, A. Nicklass, W. Kuechle, H. Stoll, M. Dolg, A. Bergner, Chem. Phys. Lett., 1996, 255, 274-280.
Sr(ecp-28), Ba(ecp-46): M. Kaupp, P. V. Schleyer, H. Stoll and H. Preuss, J. Chem. Phys., 1991, 94, 1360-1366.
La(ecp-46): M. Dolg, H. Stoll, A. Savin, H. Preuss, Theor. Chim. Acta, 1989, 75, 173-194.
Lu(ecp-28): X. Cao, M. Dolg, J. Chem. Phys., 2001, 115, 7348-7355.

ECP parameters for I  [Def2-ECP] have been obtained from:
TURBOMOLE (7.0.2)

----- Orbital basis set information -----
Your calculation utilizes the basis: def2-SVP
   F. Weigend and R. Ahlrichs, Phys. Chem. Chem. Phys. 7, 3297 (2005).



################################################################################


                                COMPOUND JOB  1 
Basename: ch3i_lw1x-p34_Compound_1
NOTE: please remember that MaxCore and PAL settings will be ignored.

################################################################################

================================================================================
                                       INPUT FILE
================================================================================
NAME = ch3i_lw1x-p34_Compound_1.inp
|  1>     ! DKH DefGrid3 RIJCOSX TightPNO DLPNO-MP2 MiniPrint NoPop
|  2>     %Basis
|  3>       Basis         "cc-pVTZ-DK"
|  4>       AuxJ          "AutoAux"
|  5>       AuxC          "AutoAux"
|  6>       CABS          "AutoAux"
|  7>       NewGTO     Ga "cc-pVTZ-DK" End
|  8>       NewAuxjGTO Ga "AutoAux" End
|  9>       NewAuxcGTO Ga "AutoAux" End
| 10>       NewCabsGTO Ga "AutoAux" End
| 11>       NewGTO     Ge "cc-pVTZ-DK" End
| 12>       NewAuxjGTO Ge "AutoAux" End
| 13>       NewAuxcGTO Ge "AutoAux" End
| 14>       NewCabsGTO Ge "AutoAux" End
| 15>       NewGTO     As "cc-pVTZ-DK" End
| 16>       NewAuxjGTO As "AutoAux" End
| 17>       NewAuxcGTO As "AutoAux" End
| 18>       NewCabsGTO As "AutoAux" End
| 19>       NewGTO     Se "cc-pVTZ-DK" End
| 20>       NewAuxjGTO Se "AutoAux" End
| 21>       NewAuxcGTO Se "AutoAux" End
| 22>       NewCabsGTO Se "AutoAux" End
| 23>       NewGTO     Br "cc-pVTZ-DK" End
| 24>       NewAuxjGTO Br "AutoAux" End
| 25>       NewAuxcGTO Br "AutoAux" End
| 26>       NewCabsGTO Br "AutoAux" End
| 27>       NewGTO     Kr "cc-pVTZ-DK" End
| 28>       NewAuxjGTO Kr "AutoAux" End
| 29>       NewAuxcGTO Kr "AutoAux" End
| 30>       NewCabsGTO Kr "AutoAux" End
| 31>       NewGTO     In "cc-pVTZ-DK" End
| 32>       NewAuxjGTO In "AutoAux" End
| 33>       NewAuxcGTO In "AutoAux" End
| 34>       NewCabsGTO In "AutoAux" End
| 35>       NewGTO     Sn "cc-pVTZ-DK" End
| 36>       NewAuxjGTO Sn "AutoAux" End
| 37>       NewAuxcGTO Sn "AutoAux" End
| 38>       NewCabsGTO Sn "AutoAux" End
| 39>       NewGTO     Sb "cc-pVTZ-DK" End
| 40>       NewAuxjGTO Sb "AutoAux" End
| 41>       NewAuxcGTO Sb "AutoAux" End
| 42>       NewCabsGTO Sb "AutoAux" End
| 43>       NewGTO     Te "cc-pVTZ-DK" End
| 44>       NewAuxjGTO Te "AutoAux" End
| 45>       NewAuxcGTO Te "AutoAux" End
| 46>       NewCabsGTO Te "AutoAux" End
| 47>       NewGTO     I  "cc-pVTZ-DK" End
| 48>       NewAuxjGTO I  "AutoAux" End
| 49>       NewAuxcGTO I  "AutoAux" End
| 50>       NewCabsGTO I  "AutoAux" End
| 51>       NewGTO     Xe "cc-pVTZ-DK" End
| 52>       NewAuxjGTO Xe "AutoAux" End
| 53>       NewAuxcGTO Xe "AutoAux" End
| 54>       NewCabsGTO Xe "AutoAux" End
| 55>     End
| 56> 
| 57>                          ****END OF INPUT****
================================================================================
Warning! AutoAux has not been tested for CABS - use at your own risk!
================================================================================

----- Orbital basis set information -----
Your calculation utilizes the basis: cc-pVTZ-DK 
    H-He, B-Ne : Obtained from the ccRepo (grant-hill.group.shef.ac.uk/ccrepo) Feb. 2017
                 W. A. de Jong, R. J. Harrison, D. A. Dixon, J. Chem. Phys. 114, 48 (2001)
  Li-Be, Na-Mg : Obtained from the Peterson Research Group Website (tyr0.chem.wsu.edu/~kipeters) Feb. 2017
                 B. P. Prascher, D. E. Woon, K. A. Peterson, T. H. Dunning, Jr., A. K. Wilson, Theor. Chem. Acc. 128, 69 (2011)
  Al-Ar, Ga-Kr : Obtained from the EMSL Basis Set Exchange (bse.pnl.gov) Feb. 2017
                 W. A. de Jong, R. J. Harrison, D. A. Dixon, J. Chem. Phys. 114, 48 (2001)
         Sc-Zn : Obtained from the ccRepo (grant-hill.group.shef.ac.uk/ccrepo) Feb. 2017
                 N. B. Balabanov, K. A. Peterson, J. Chem. Phys. 123, 064107 (2005)
                 N. B. Balabanov, K. A. Peterson, J. Chem. Phys. 125, 074110 (2006)
          Y-Pd : Obtained from the ccRepo (grant-hill.group.shef.ac.uk/ccrepo) Feb. 2017
                 K. A. Peterson, D. Figgen, M. Dolg, H. Stoll, J. Chem. Phys. 126, 124101 (2007)
  Ag-Cd, Au-Hg : Obtained from the ccRepo (grant-hill.group.shef.ac.uk/ccrepo) Feb. 2017
                 K. A. Peterson, C. Puzzarini, Theor. Chem. Acc. 114, 283 (2005)
  In-Xe, Tl-Rn : Obtained from the ccRepo (grant-hill.group.shef.ac.uk/ccrepo) Feb. 2017
                 D. H. Bross, K. A. Peterson, Theor. Chem. Acc. 133, 1434 (2014)
         Hf-Pt : Obtained from the ccRepo (grant-hill.group.shef.ac.uk/ccrepo) Feb. 2017
                 D. Figgen, K. A. Peterson, M. Dolg, H. Stoll, J. Chem. Phys. 130, 164108 (2009)

The basis set includes element-specific modifications.

----- AuxJ basis set information -----
Your calculation utilizes the AutoAux generation procedure.
  G. L. Stoychev, A. A. Auer, F. Neese, J. Chem. Theory Comput. 13, 554 (2017)

The basis set includes element-specific modifications.

----- AuxC basis set information -----
Your calculation utilizes the AutoAux generation procedure.
  G. L. Stoychev, A. A. Auer, F. Neese, J. Chem. Theory Comput. 13, 554 (2017)

The basis set includes element-specific modifications.

----- CABS information -----
Your calculation utilizes the AutoAux generation procedure.
  G. L. Stoychev, A. A. Auer, F. Neese, J. Chem. Theory Comput. 13, 554 (2017)

The basis set includes element-specific modifications.


                    <<< The CABS basis set will be decontracted >>>

================================================================================
                                        WARNINGS
                       Please study these warnings very carefully!
================================================================================


WARNING: No MP2 level density has been requested!
         To caclulate MP2 level properties use
         %mp2 Density relaxed end
         or
         %mp2 Density unrelaxed end

WARNING: Post HF methods need fully converged wavefunctions
  ===> : Setting SCFConvForced true
         You can overwrite this default with %scf ConvForced false 


INFO   : the flag for use of the SHARK integral package has been found!


                       ****************************
                       * Single Point Calculation *
                       ****************************

---------------------------------
CARTESIAN COORDINATES (ANGSTROEM)
---------------------------------
  I     -0.000000   -0.000000    0.324673
  C     -0.000000   -0.000000   -1.802260
  H      0.000000    1.032733   -2.131368
  H      0.894373   -0.516367   -2.131368
  H     -0.894373   -0.516367   -2.131368

----------------------------
CARTESIAN COORDINATES (A.U.)
----------------------------
  NO LB      ZA    FRAG     MASS         X           Y           Z
   0 I    53.0000    0   126.900   -0.000000   -0.000000    0.613543
   1 C     6.0000    0    12.011   -0.000000   -0.000000   -3.405778
   2 H     1.0000    0     1.008    0.000000    1.951583   -4.027702
   3 H     1.0000    0     1.008    1.690120   -0.975792   -4.027702
   4 H     1.0000    0     1.008   -1.690120   -0.975792   -4.027702



           ************************************************************
           *        Program running with 30 parallel MPI-processes    *
           *              working on a common directory               *
           ************************************************************
------------------------------------------------------------------------------
                   ___                                                        
                  /   \      - P O W E R E D   B Y -                         
                 /     \                                                     
                 |  |  |   _    _      __       _____    __    __             
                 |  |  |  | |  | |    /  \     |  _  \  |  |  /  |          
                  \  \/   | |  | |   /    \    | | | |  |  | /  /          
                 / \  \   | |__| |  /  /\  \   | |_| |  |  |/  /          
                |  |  |   |  __  | /  /__\  \  |    /   |      \           
                |  |  |   | |  | | |   __   |  |    \   |  |\   \          
                \     /   | |  | | |  |  |  |  | |\  \  |  | \   \       
                 \___/    |_|  |_| |__|  |__|  |_| \__\ |__|  \__/        
                                                                              
                      - O R C A' S   B I G   F R I E N D -                    
                                      &                                       
                       - I N T E G R A L  F E E D E R -                       
                                                                              
 v1 FN, 2020, v2 2021                                                         
------------------------------------------------------------------------------


Reading SHARK input file ch3i_lw1x-p34_Compound_1.SHARKINP.tmp ... ok
----------------------
SHARK INTEGRAL PACKAGE
----------------------

Number of atoms                             ...      5
Number of basis functions                   ...    124
Number of shells                            ...     46
Maximum angular momentum                    ...      3
Integral batch strategy                     ... SHARK/LIBINT Hybrid
RI-J (if used) integral strategy            ... SPLIT-RIJ (Revised 2003 algorithm where possible)
Printlevel                                  ...      1
Contraction scheme used                     ... SEGMENTED contraction
Coulomb Range Separation                    ... NOT USED
Exchange Range Separation                   ... NOT USED
Finite Nucleus Model                        ... NOT USED
Auxiliary Coulomb fitting basis             ... AVAILABLE
   # of basis functions in Aux-J            ...    793
   # of shells in Aux-J                     ...    199
   Maximum angular momentum in Aux-J        ...      5
Auxiliary J/K fitting basis                 ... NOT available
Auxiliary Correlation fitting basis         ... AVAILABLE
   # of basis functions in Aux-C            ...    793
   # of shells in Aux-C                     ...    199
   Maximum angular momentum in Aux-C        ...      5
Auxiliary 'external' fitting basis          ... NOT available
Integral threshold                          ...     1.000000e-10
Primitive cut-off                           ...     1.000000e-11
Primitive pair pre-selection threshold      ...     1.000000e-11

Calculating pre-screening integrals         ... done (  5.4 sec) Dimension = 46
Organizing shell pair data                  ... done (  0.1 sec)
Shell pair information
Total number of shell pairs                 ...      1081
Shell pairs after pre-screening             ...      1081
Total number of primitive shell pairs       ...     43837
Primitive shell pairs kept                  ...     38295
          la=0 lb=0:    210 shell pairs
          la=1 lb=0:    300 shell pairs
          la=1 lb=1:    120 shell pairs
          la=2 lb=0:    180 shell pairs
          la=2 lb=1:    135 shell pairs
          la=2 lb=2:     45 shell pairs
          la=3 lb=0:     40 shell pairs
          la=3 lb=1:     30 shell pairs
          la=3 lb=2:     18 shell pairs
          la=3 lb=3:      3 shell pairs

Calculating one electron integrals          ... done (  0.0 sec)
Calculating RI/J V-Matrix + Cholesky decomp.... done (  0.1 sec)
Calculating RI/C V-Matrix + Cholesky decomp.... done (  0.1 sec)
Calculating Nuclear repulsion               ... done (  0.0 sec) ENN=    120.373017166907 Eh

SHARK setup successfully completed in   9.0 seconds

Maximum memory used throughout the entire GTOINT-calculation: 586.8 MB


           ************************************************************
           *        Program running with 30 parallel MPI-processes    *
           *              working on a common directory               *
           ************************************************************
------------------------------------------------------------------------------
                          ORCA RELATIVISTIC HAMILTONIAN
------------------------------------------------------------------------------

Relativistic Method            ... DKH
Order of DKH treatment         ...   2
Treatment of potential         ... V(e,N)
Eps parameter for DKH          ...   0.00000000010000
Nucleus model                  ... Point Nucleus
Speed of light used            ... 137.03598950000000


            ************************************************
            *        DOUGLAS-KROLL-HESS HAMILTONIAN        *
            *   Programmed by FN according to literature   *
            *        procedures. Special thanks to         *
            *       B.A. Hess, M. Reiher and A. Wolf       *
            *     University Erlangen-Nuernberg/Bonn       *
            ************************************************

Uncontracting the basis (second version)       ... done
Basis set overlap                              ... done
Number of contracted basis functions           ...  124
Number of uncontracted basis functions         ...  258
Initializing the DKH file                      ... done
Calculating the relativistic integrals         ... done
Storing DKH matrices                           ... done
Code used for DKH trafo                        ... ORCA
Computing the DKH transformation               ... done
Storing the transformation variables           ... done
Transforming V and pVp to p**2 space           ... done
First transformation of V and pVp              ... done
Second transformation of Veff                  ... done
Adding kinetic energy                          ... done
Back transformation of Veff to r-space         ... done
Recovering DKH matrices                        ... done
Recontracting the H-matrix (second version)    ... done
Computing the DKH correction to the H-matrix   ... done
Reading the original H-matrix                  ... done
Adding DKH correction to the H-matrix          ... done
Storing the new modified H-matrix              ... done

Maximum memory used throughout the entire REL-calculation: 46.9 MB


           ************************************************************
           *        Program running with 30 parallel MPI-processes    *
           *              working on a common directory               *
           ************************************************************

Diagonalization of the overlap matrix:
Smallest eigenvalue                        ... 1.790e-03
Time for diagonalization                   ...    0.016 sec
Threshold for overlap eigenvalues          ... 1.000e-08
Number of eigenvalues below threshold      ... 0
Time for construction of square roots      ...    0.018 sec
Total time needed                          ...    0.036 sec

Time for model grid setup =    0.110 sec

Loading DKH relativistic densities                 ... done
Calculating cut-offs                               ... done
Initializing the effective Hamiltonian             ... done
Setting up the integral package (SHARK)            ... done
Starting the Coulomb interaction                   ... done (   0.1 sec)
Reading the grid                                   ... done
Mapping shells                                     ... done
Starting the XC term evaluation                    ... done (   0.0 sec)
Transforming the Hamiltonian                       ... done (   0.0 sec)
Diagonalizing the Hamiltonian                      ... done (   0.0 sec)
Back transforming the eigenvectors                 ... done (   0.0 sec)
Now organizing SCF variables                       ... done
--------------------
COSX GRID GENERATION
--------------------

GRIDX 1
-------
General Integration Accuracy     IntAcc      ... 4.020
Radial Grid Type                 RadialGrid  ... OptM3 with GC (2021)
Angular Grid (max. ang.)         AngularGrid ... 2 (Lebedev-110)
Angular grid pruning method      GridPruning ... 4 (adaptive)
Weight generation scheme         WeightScheme... Becke
Basis function cutoff            BFCut       ... 1.0000e-10
Integration weight cutoff        WCut        ... 1.0000e-14
Angular grids for H and He will be reduced by one unit
Partially contracted basis set               ... on
Rotationally invariant grid construction     ... off

Total number of grid points                  ...     7467
Total number of batches                      ...      119
Average number of points per batch           ...       62
Average number of grid points per atom       ...     1493
UseSFitting                                  ... on

GRIDX 2
-------
General Integration Accuracy     IntAcc      ... 4.338
Radial Grid Type                 RadialGrid  ... OptM3 with GC (2021)
Angular Grid (max. ang.)         AngularGrid ... 3 (Lebedev-194)
Angular grid pruning method      GridPruning ... 4 (adaptive)
Weight generation scheme         WeightScheme... Becke
Basis function cutoff            BFCut       ... 1.0000e-10
Integration weight cutoff        WCut        ... 1.0000e-14
Angular grids for H and He will be reduced by one unit
Partially contracted basis set               ... on
Rotationally invariant grid construction     ... off

Total number of grid points                  ...    15934
Total number of batches                      ...      252
Average number of points per batch           ...       63
Average number of grid points per atom       ...     3187
UseSFitting                                  ... on

GRIDX 3
-------
General Integration Accuracy     IntAcc      ... 4.871
Radial Grid Type                 RadialGrid  ... OptM3 with GC (2021)
Angular Grid (max. ang.)         AngularGrid ... 4 (Lebedev-302)
Angular grid pruning method      GridPruning ... 4 (adaptive)
Weight generation scheme         WeightScheme... Becke
Basis function cutoff            BFCut       ... 1.0000e-10
Integration weight cutoff        WCut        ... 1.0000e-14
Angular grids for H and He will be reduced by one unit
Partially contracted basis set               ... on
Rotationally invariant grid construction     ... off

Total number of grid points                  ...    32193
Total number of batches                      ...      506
Average number of points per batch           ...       63
Average number of grid points per atom       ...     6439
UseSFitting                                  ... on

Time for X-Grid setup             =    0.656 sec

 re-compute Schwartz prescreening matrix in partically contracted basis (1) ...done (   0.106 sec)
--------------
SCF ITERATIONS
--------------
ITER       Energy         Delta-E        Max-DP      RMS-DP      [F,P]     Damp
               ***  Starting incremental Fock matrix formation  ***
  0  -7150.4014865876   0.000000000000 0.05967561  0.00110314  0.2219151 0.7000
  1  -7150.4360061170  -0.034519529333 0.04894954  0.00086625  0.1385195 0.7000
                               ***Turning on DIIS***
  2  -7150.4569803150  -0.020974198046 0.12215725  0.00203749  0.0916852 0.0000
  3  -7150.2543537635   0.202626551493 0.01738336  0.00038192  0.0411872 0.0000
  4  -7150.5087856769  -0.254431913380 0.00756975  0.00016302  0.0056394 0.0000
                      *** Initiating the SOSCF procedure ***
                           *** Shutting down DIIS ***
                      *** Re-Reading the Fockian *** 
                      *** Removing any level shift *** 
ITER      Energy       Delta-E        Grad      Rot      Max-DP    RMS-DP
  5  -7150.48418855   0.0245971284  0.001551  0.001551  0.003587  0.000081
               *** Restarting incremental Fock matrix formation ***
  6  -7150.50120570  -0.0170171558  0.000432  0.000652  0.002052  0.000037
  7  -7150.50120971  -0.0000040057  0.000185  0.000510  0.000984  0.000022
  8  -7150.50121045  -0.0000007371  0.000046  0.000056  0.000097  0.000003
                 **** Energy Check signals convergence ****
              ***Rediagonalizing the Fockian in SOSCF/NRSCF***

               *****************************************************
               *                     SUCCESS                       *
               *           SCF CONVERGED AFTER   9 CYCLES          *
               *****************************************************

Old exchange energy                            =   -186.661629199 Eh
New exchange energy                            =   -186.661580031 Eh
Exchange energy change after final integration =      0.000049168 Eh
Total energy after final integration           =  -7150.501161226 Eh
Final COS-X integration done in                =     0.340 sec
Total Energy       :        -7150.50116123 Eh         -194575.02860 eV
  Last Energy change         ...    5.3766e-08  Tolerance :   1.0000e-06
  Last MAX-Density change    ...    5.7732e-15  Tolerance :   1.0000e-05
             **** THE GBW FILE WAS UPDATED (ch3i_lw1x-p34_Compound_1.gbw) ****
             **** DENSITY ch3i_lw1x-p34_Compound_1.scfp WAS UPDATED ****
             **** ENERGY FILE WAS UPDATED (ch3i_lw1x-p34_Compound_1.en.tmp) ****
             **** THE GBW FILE WAS UPDATED (ch3i_lw1x-p34_Compound_1.gbw) ****
             **** DENSITY ch3i_lw1x-p34_Compound_1.scfp WAS UPDATED ****
----------------
ORBITAL ENERGIES
----------------

  NO   OCC          E(Eh)            E(eV) 
   0   2.0000   -1224.081324    -33308.9462 
   1   2.0000    -192.797429     -5246.2848 
   2   2.0000    -172.982842     -4707.1024 
   3   2.0000    -172.982161     -4707.0839 
   4   2.0000    -172.982160     -4707.0839 
   5   2.0000     -40.457852     -1100.9141 
   6   2.0000     -33.855379      -921.2517 
   7   2.0000     -33.851988      -921.1594 
   8   2.0000     -33.851987      -921.1594 
   9   2.0000     -23.897648      -650.2881 
  10   2.0000     -23.896404      -650.2542 
  11   2.0000     -23.896404      -650.2542 
  12   2.0000     -23.892904      -650.1590 
  13   2.0000     -23.892903      -650.1589 
  14   2.0000     -11.284205      -307.0588 
  15   2.0000      -7.712835      -209.8769 
  16   2.0000      -5.556703      -151.2056 
  17   2.0000      -5.548446      -150.9809 
  18   2.0000      -5.548446      -150.9809 
  19   2.0000      -2.278050       -61.9889 
  20   2.0000      -2.273344       -61.8608 
  21   2.0000      -2.273344       -61.8608 
  22   2.0000      -2.263130       -61.5829 
  23   2.0000      -2.263122       -61.5827 
  24   2.0000      -1.001726       -27.2584 
  25   2.0000      -0.835878       -22.7454 
  26   2.0000      -0.605005       -16.4630 
  27   2.0000      -0.605004       -16.4630 
  28   2.0000      -0.463279       -12.6065 
  29   2.0000      -0.360317        -9.8047 
  30   2.0000      -0.360314        -9.8046 
  31   0.0000       0.096081         2.6145 
  32   0.0000       0.165361         4.4997 
  33   0.0000       0.200951         5.4682 
  34   0.0000       0.200956         5.4683 
  35   0.0000       0.330131         8.9833 
  36   0.0000       0.344104         9.3636 
  37   0.0000       0.344107         9.3636 
  38   0.0000       0.358447         9.7538 
  39   0.0000       0.381126        10.3710 
  40   0.0000       0.381134        10.3712 
  41   0.0000       0.412024        11.2118 
  42   0.0000       0.412031        11.2119 
  43   0.0000       0.471209        12.8222 
  44   0.0000       0.479569        13.0497 
  45   0.0000       0.479570        13.0498 
  46   0.0000       0.616262        16.7693 
  47   0.0000       0.619682        16.8624 
  48   0.0000       0.619688        16.8626 
  49   0.0000       0.688606        18.7379 
  50   0.0000       0.820285        22.3211 
  51   0.0000       0.820286        22.3211 
  52   0.0000       0.839529        22.8448 
  53   0.0000       1.036500        28.2046 
  54   0.0000       1.046585        28.4790 
  55   0.0000       1.046587        28.4791 
  56   0.0000       1.144385        31.1403 
  57   0.0000       1.155440        31.4411 
  58   0.0000       1.155447        31.4413 
  59   0.0000       1.175414        31.9846 
  60   0.0000       1.182362        32.1737 
  61   0.0000       1.208038        32.8724 
  62   0.0000       1.208041        32.8725 
  63   0.0000       1.290583        35.1185 
  64   0.0000       1.426883        38.8275 
  65   0.0000       1.426896        38.8278 
  66   0.0000       1.438771        39.1509 
  67   0.0000       1.477394        40.2019 
  68   0.0000       1.477397        40.2020 
  69   0.0000       1.593845        43.3707 
  70   0.0000       1.593855        43.3710 
  71   0.0000       1.641470        44.6667 
  72   0.0000       1.641481        44.6670 
  73   0.0000       1.758419        47.8490 
  74   0.0000       1.758419        47.8490 
  75   0.0000       1.761438        47.9312 
  76   0.0000       1.821052        49.5534 
  77   0.0000       1.906799        51.8866 
  78   0.0000       1.906816        51.8871 
  79   0.0000       2.015341        54.8402 
  80   0.0000       2.271814        61.8192 
  81   0.0000       2.448093        66.6160 
  82   0.0000       2.448097        66.6161 
  83   0.0000       2.608432        70.9790 
  84   0.0000       2.957735        80.4841 
  85   0.0000       2.958651        80.5090 
  86   0.0000       2.958668        80.5094 
  87   0.0000       3.101136        84.3862 
  88   0.0000       3.123279        84.9887 
  89   0.0000       3.123286        84.9889 
  90   0.0000       3.259844        88.7049 
  91   0.0000       3.259852        88.7051 
  92   0.0000       3.342751        90.9609 
  93   0.0000       3.383757        92.0767 
  94   0.0000       3.383764        92.0769 
  95   0.0000       3.563602        96.9705 
  96   0.0000       3.687565       100.3437 
  97   0.0000       3.687581       100.3442 
  98   0.0000       3.732311       101.5613 
  99   0.0000       3.747283       101.9688 
 100   0.0000       3.747289       101.9689 
 101   0.0000       3.790572       103.1467 
 102   0.0000       4.119291       112.0916 
 103   0.0000       4.119295       112.0917 
 104   0.0000       4.123771       112.2135 
 105   0.0000       4.233488       115.1991 
 106   0.0000       4.233494       115.1992 
 107   0.0000       4.322841       117.6305 
 108   0.0000       4.339961       118.0963 
 109   0.0000       4.339965       118.0965 
 110   0.0000       4.506576       122.6302 
 111   0.0000       4.828620       131.3934 
 112   0.0000       5.044216       137.2601 
 113   0.0000       5.044231       137.2605 
 114   0.0000       5.267333       143.3314 
 115   0.0000       5.337234       145.2335 
 116   0.0000       5.337249       145.2339 
 117   0.0000       5.516263       150.1051 
 118   0.0000       5.516268       150.1053 
 119   0.0000       5.577084       151.7602 
 120   0.0000       5.590983       152.1384 
 121   0.0000       6.154462       167.4714 
 122   0.0000       6.154475       167.4718 
 123   0.0000      13.118745       356.9792 
Total SCF time: 0 days 0 hours 0 min 9 sec 

Maximum memory used throughout the entire SCF-calculation: 77.2 MB


           ************************************************************
           *        Program running with 30 parallel MPI-processes    *
           *              working on a common directory               *
           ************************************************************

------------------------------------------------------------------------------
                                ORCA  MP2 
------------------------------------------------------------------------------

Freezing NCore=38 chemical core electrons
Initializing SHARK ... done


------------------------------------------------------------------------------
                           ORCA ORBITAL LOCALIZATION
------------------------------------------------------------------------------

Input orbitals are from                  ... ch3i_lw1x-p34_Compound_1.gbw
Output orbitals are to                   ... ch3i_lw1x-p34_Compound_1.loc
Max. number of iterations                ... 128
Localizations seeded randomly            ... off
Convergence tolerance                    ... 1.000e-06
Treshold for strong local MOs            ... 9.500e-01
Treshold for bond MOs                    ... 8.500e-01
Operator                                 ... 0
Orbital range for localization           ... 19 to 30
Localization criterion                   ... FOSTER-BOYS (AUGMENTED HESSIAN)
Doing the dipole integrals     ... o.k.
Initial value of the localization sum :    45.537918
ITERATION   0 : L=   57.3305662610 DL=  1.18e+01 (AVERGE_DL)=    0.4227014117 
ITERATION   1 : L=   58.5625554228 DL=  1.23e+00 (AVERGE_DL)=    0.1366254092 
ITERATION   2 : L=   58.7425828026 DL=  1.80e-01 (AVERGE_DL)=    0.0522272685 
ITERATION   3 : L=   58.7452448999 DL=  2.66e-03 (AVERGE_DL)=    0.0063509690 
ITERATION   4 : L=   58.7454813309 DL=  2.36e-04 (AVERGE_DL)=    0.0018926936 
ITERATION   5 : L=   58.7455251620 DL=  4.38e-05 (AVERGE_DL)=    0.0008149275 
ITERATION   6 : L=   58.7455384938 DL=  1.33e-05 (AVERGE_DL)=    0.0004494416 
ITERATION   7 : L=   58.7455454665 DL=  6.97e-06 (AVERGE_DL)=    0.0003250321 
ITERATION   8 : L=   58.7455507095 DL=  5.24e-06 (AVERGE_DL)=    0.0002818499 
ITERATION   9 : L=   58.7455552692 DL=  4.56e-06 (AVERGE_DL)=    0.0002628442 
ITERATION  10 : L=   58.7455595226 DL=  4.25e-06 (AVERGE_DL)=    0.0002538623 
ITERATION  11 : L=   58.7455637454 DL=  4.22e-06 (AVERGE_DL)=    0.0002529455 
ITERATION  12 : L=   58.7455682247 DL=  4.48e-06 (AVERGE_DL)=    0.0002605154 
ITERATION  13 : L=   58.7455732601 DL=  5.04e-06 (AVERGE_DL)=    0.0002762117 
ITERATION  14 : L=   58.7455791122 DL=  5.85e-06 (AVERGE_DL)=    0.0002977726 
ITERATION  15 : L=   58.7455859696 DL=  6.86e-06 (AVERGE_DL)=    0.0003223362 
ITERATION  16 : L=   58.7455940734 DL=  8.10e-06 (AVERGE_DL)=    0.0003504064 
ITERATION  17 : L=   58.7456042061 DL=  1.01e-05 (AVERGE_DL)=    0.0003918232 
ITERATION  18 : L=   58.7456186430 DL=  1.44e-05 (AVERGE_DL)=    0.0004676971 
ITERATION  19 : L=   58.7456421189 DL=  2.35e-05 (AVERGE_DL)=    0.0005964028 
ITERATION  20 : L=   58.7456790603 DL=  3.69e-05 (AVERGE_DL)=    0.0007481431 
ITERATION  21 : L=   58.7457225125 DL=  4.35e-05 (AVERGE_DL)=    0.0008113977 
ITERATION  22 : L=   58.7457574089 DL=  3.49e-05 (AVERGE_DL)=    0.0007271410 
ITERATION  23 : L=   58.7457797583 DL=  2.23e-05 (AVERGE_DL)=    0.0005819162 
ITERATION  24 : L=   58.7457931683 DL=  1.34e-05 (AVERGE_DL)=    0.0004507571 
ITERATION  25 : L=   58.7458010917 DL=  7.92e-06 (AVERGE_DL)=    0.0003464845 
ITERATION  26 : L=   58.7458057415 DL=  4.65e-06 (AVERGE_DL)=    0.0002654274 
ITERATION  27 : L=   58.7458084814 DL=  2.74e-06 (AVERGE_DL)=    0.0002037506 
ITERATION  28 : L=   58.7458101229 DL=  1.64e-06 (AVERGE_DL)=    0.0001577062 
ITERATION  29 : L=   58.7458111375 DL=  1.01e-06 (AVERGE_DL)=    0.0001239865 
ITERATION  30 : L=   58.7458117909 DL=  6.53e-07 (AVERGE_DL)=    0.0000994982 
LOCALIZATION SUM CONVERGED

------------------------------------------------------
AUGMENTED HESSIAN OPTIMIZATION OF FOSTER-BOYS ORBITALS
------------------------------------------------------

Spin operator:           0
Orbital window:          19 to 30
Number of iterations:    128
Gradient tolerance:      1.000e-06
Number of pairs:         66
Davidson threshold:      2000
Diagonalization method:  LAPACK
Iter:    0   L: 58.7458117909   Grad. norm: 1.297264e-03
Iter:    1   L: 58.7458146198   Grad. norm: 1.087550e-04
   *** Likely close to a maximum now. ***
       Augmented Hessian eigenvalues:  3.45e-09 -2.36e-03 -2.83e-03 -3.83e-03 ... 
Iter:    2   L: 58.7458146216   Grad. norm: 1.219299e-08
LOCALIZATION HAS CONVERGED.

Eigenvalues of the Hessian:
  0 -2.356e-03
  1 -2.831e-03
  2 -3.829e-03
  3 -7.660e-03
  4 -9.517e-03
  5 -1.097e-02
  6 -1.791e-02
  7 -2.849e-02
  8 -4.629e-02
  9 -5.423e-02
    ...


------------------------------------------------------------------------------- 
                    LOCALIZED MOLECULAR ORBITAL COMPOSITIONS                   
------------------------------------------------------------------------------- 

The Mulliken populations for each LMO on each atom are computed
The LMO`s will be ordered according to atom index and type
  (A) Strongly localized MO`s have populations of >=0.950 on one atom
  (B) Two center bond orbitals have populations of >=0.850 on two atoms
  (C) Other MO`s are considered to be `delocalized`

FOUND  -   8 strongly local MO`s
       -   4 two center bond MO`s
       -   0 significantly delocalized MO`s

Rather strongly localized orbitals:
MO  26:   0I  -   1.004496
MO  25:   0I  -   1.004585
MO  24:   0I  -   0.998105
MO  23:   0I  -   1.000055
MO  22:   0I  -   0.999898
MO  21:   0I  -   1.000098
MO  20:   0I  -   1.000148
MO  19:   0I  -   1.004522
Bond-like localized orbitals:
MO  30:   4H  -   0.456504  and   1C  -   0.562978
MO  29:   3H  -   0.456505  and   1C  -   0.562978
MO  28:   2H  -   0.456504  and   1C  -   0.562984
MO  27:   1C  -   0.457272  and   0I  -   0.550874
Localized MO's were stored in: ch3i_lw1x-p34_Compound_1.loc



Calculating differential overlap integrals ... ok
Threshold for domain construction in prescreening: TCutDOPre = 3.0e-02

--------------------------
ELECTRON PAIR PRESCREENING
--------------------------

Dipole-based pair screening          .... used

   TCutDOij = 1.000000e-05
   TCutPre  = 1.000000e-06
   .... Finished loop over pairs
Total time spent in the prescreening                  ...     0.011 sec
sum of pair energies estimated for screened out pairs ...       0.000000000000 Eh

---------------------------
MAP CONSTRUCTION THRESHOLDS
---------------------------
    TCutMKN     ...     1.0e-03
    TCutDO      ...     5.0e-03
    TCutC(MO)   ...     1.0e-03
    TCutC(PAO)  ...     1.0e-03

--------------------------------
LOCAL RI TRANSFORMATION (IAVPAO)
--------------------------------

Orbital window:      19 to 30
Number of PAOs:     124
Basis functions:    124 (46 shells)
Aux. functions:     793 (199 shells)
Use SHARK:           on

Processing maps (0.0 sec)
Average map sizes:
   Aux shells -> MOs              12.0
   Aux shells -> PAOs            124.0
   MOs        -> AO shells        45.0
   PAOs       -> AO shells        46.0

Calculating integrals (0.4 sec, 9.012 MB)
Sorting integrals (0.1 sec, 9.003 MB)
Total time for the integral transformation: 0.6 sec

----------------------------
Local MP2 Energy Calculation
----------------------------
Number of orbital pairs included:     78
Truncation parameters:
    PAOOverlapThresh    =        1.000e-08
    TCutPNO             =        1.000e-09

Spin component scaling                      .... not used
MP2 energy scaling factor                   .... 1.000

Formation of semicanonical amplitudes.
 10% done.
 20% done.
 30% done.
 40% done.
 50% done.
 60% done.
 70% done.
 80% done.
 90% done.
100% done.

Finished the LMP2 guess in 0.2 sec.

Average number of PAOs per pair        124.0
Average number of nrPAOs per pair       93.0
Average number of PNOs per pair         56.5
Average number of AUX  per pair        700.6

Semicanonical MP2 energy:                   -0.374448769123 Eh
Semicanonical MP2 energy in PNO basis:      -0.374446096710 Eh

Initial amplitudes guess done. Entering DLPNO-MP2 iteration loop:
   Max. no of iterations          ...  100
   Energy convergence tolerance   ...    1.0e-06 Eh
   Residual convergence tolerance ...    5.0e-06
   Fock matrix cutoff             ...    1.0e-05 Eh
   Max # vectors in DIIS          ...  7
   Start iteration of DIIS        ...  0
   Levelshift                     ...  2.000e-01 Eh
   Damping before turning on DIIS ...  5.000e-01
   Damping after turning on DIIS  ...  0.000e+00

                           *** Turning on DIIS ***
Iter=   0:  ECORR= -0.386004469216  DE=   1.2e-02 RMAX=   1.1e-02
Iter=   1:  ECORR= -0.394214911464  DE=   8.2e-03 RMAX=   4.0e-03
Iter=   2:  ECORR= -0.396127487735  DE=   1.9e-03 RMAX=   9.3e-04
Iter=   3:  ECORR= -0.396239753910  DE=   1.1e-04 RMAX=   3.0e-04
Iter=   4:  ECORR= -0.396233442739  DE=   6.3e-06 RMAX=   6.8e-05
Iter=   5:  ECORR= -0.396232394261  DE=   1.0e-06 RMAX=   2.8e-05
Iter=   6:  ECORR= -0.396232462709  DE=   6.8e-08 RMAX=   6.4e-06
Iter=   7:  ECORR= -0.396232411614  DE=   5.1e-08 RMAX=   1.5e-06 => CONVERGED

Finished the DLPNO-MP2 iterations in 5.1 sec.

LMP2 correlation energy (all non-screened pairs)      ...     -0.396232411614 Eh
Semicanonical PNO correction to energy                ...     -0.000002672413 Eh
Sum of pair energies estimated for screened out pairs ...      0.000000000000 Eh
                                                         -----------------------
Total:                                                ...     -0.396235084027 Eh

------------------------------------------------------
 DLPNO-MP2 CORRELATION ENERGY:      -0.396235084027 Eh
------------------------------------------------------

TIMINGS FOR DLPNO-MP2:
Localization                             ...        1.023 sec
Differential overlap integrals           ...        1.459 sec
Prescreening                             ...        0.856 sec
Map setup                                ...        0.004 sec
(ia|v) trafo                             ...        0.573 sec
Semicanonical amplitudes                 ...        0.089 sec
PNO construction                         ...        0.008 sec
DLPNO-MP2 iterations                     ...        5.064 sec
                                             ----------------
Total time                                         10.827 sec


---------------------------------------
MP2 TOTAL ENERGY:    -7150.897396310 Eh
---------------------------------------

Maximum memory used throughout the entire MP2-calculation: 1259.8 MB

-------------------------   --------------------
FINAL SINGLE POINT ENERGY     -7150.897396309751
-------------------------   --------------------


                            ***************************************
                            *     ORCA property calculations      *
                            ***************************************


  WARNING: The energy has been calculated at the MP2 level but the densities
           used in the property calculations are still SCF densities
           MP2 response densities have not been calculated 
           use %mp2 Density relaxed end
           or  %mp2 Density unrelaxed end

                                    ---------------------
                                    Active property flags
                                    ---------------------
   (+) Dipole Moment


------------------------------------------------------------------------------
                       ORCA ELECTRIC PROPERTIES CALCULATION
------------------------------------------------------------------------------

Dipole Moment Calculation                       ... on
Quadrupole Moment Calculation                   ... off
Polarizability Calculation                      ... off
GBWName                                         ... ch3i_lw1x-p34_Compound_1.gbw
Electron density                                ... ch3i_lw1x-p34_Compound_1.scfp
The origin for moment calculation is the CENTER OF MASS  = ( 0.000000, -0.000000  0.174531)

-------------
DIPOLE MOMENT
-------------
                                X             Y             Z
Electronic contribution:     -0.00000       0.00005      10.06029
Nuclear contribution   :      0.00000      -0.00000     -10.82091
                        -----------------------------------------
Total Dipole Moment    :     -0.00000       0.00005      -0.76062
                        -----------------------------------------
Magnitude (a.u.)       :      0.76062
Magnitude (Debye)      :      1.93334



--------------------
Rotational spectrum 
--------------------
 
Rotational constants in cm-1:     5.226836     0.253386     0.253386 
Rotational constants in MHz : 156696.600267  7596.333598  7596.333474 

 Dipole components along the rotational axes: 
x,y,z [a.u.] :     0.760619    -0.000049    -0.000000 
x,y,z [Debye]:     1.933341    -0.000124    -0.000001 

 

Timings for individual modules:

Sum of individual times         ...       43.214 sec (=   0.720 min)
GTO integral calculation        ...       14.203 sec (=   0.237 min)  32.9 %
Relativistic integrals          ...        2.524 sec (=   0.042 min)   5.8 %
SCF iterations                  ...       11.221 sec (=   0.187 min)  26.0 %
MP2 module                      ...       15.265 sec (=   0.254 min)  35.3 %


################################################################################


                                COMPOUND JOB  2 
Basename: ch3i_lw1x-p34_Compound_2
NOTE: please remember that MaxCore and PAL settings will be ignored.

################################################################################

================================================================================
                                       INPUT FILE
================================================================================
NAME = ch3i_lw1x-p34_Compound_2.inp
|  1>     ! DefGrid3 RIJCOSX TightPNO DLPNO-MP2 MiniPrint NoPop
|  2>     %Basis
|  3>       Basis         "cc-pVTZ"
|  4>       AuxJ          "AutoAux"
|  5>       AuxC          "AutoAux"
|  6>       CABS          "AutoAux"
|  7>       NewECP     Ga "SK-MCDHF-RSC" End
|  8>       NewGTO     Ga "cc-pVTZ-PP"   End
|  9>       NewAuxjGTO Ga "AutoAux" End
| 10>       NewAuxcGTO Ga "AutoAux" End
| 11>       NewCabsGTO Ga "AutoAux" End
| 12>       NewECP     Ge "SK-MCDHF-RSC" End
| 13>       NewGTO     Ge "cc-pVTZ-PP"   End
| 14>       NewAuxjGTO Ge "AutoAux" End
| 15>       NewAuxcGTO Ge "AutoAux" End
| 16>       NewCabsGTO Ge "AutoAux" End
| 17>       NewECP     As "SK-MCDHF-RSC" End
| 18>       NewGTO     As "cc-pVTZ-PP"   End
| 19>       NewAuxjGTO As "AutoAux" End
| 20>       NewAuxcGTO As "AutoAux" End
| 21>       NewCabsGTO As "AutoAux" End
| 22>       NewECP     Se "SK-MCDHF-RSC" End
| 23>       NewGTO     Se "cc-pVTZ-PP"   End
| 24>       NewAuxjGTO Se "AutoAux" End
| 25>       NewAuxcGTO Se "AutoAux" End
| 26>       NewCabsGTO Se "AutoAux" End
| 27>       NewECP     Br "SK-MCDHF-RSC" End
| 28>       NewGTO     Br "cc-pVTZ-PP"   End
| 29>       NewAuxjGTO Br "AutoAux" End
| 30>       NewAuxcGTO Br "AutoAux" End
| 31>       NewCabsGTO Br "AutoAux" End
| 32>       NewECP     Kr "SK-MCDHF-RSC" End
| 33>       NewGTO     Kr "cc-pVTZ-PP"   End
| 34>       NewAuxjGTO Kr "AutoAux" End
| 35>       NewAuxcGTO Kr "AutoAux" End
| 36>       NewCabsGTO Kr "AutoAux" End
| 37>       NewECP     In "SK-MCDHF-RSC" End
| 38>       NewGTO     In "cc-pVTZ-PP"   End
| 39>       NewAuxjGTO In "AutoAux" End
| 40>       NewAuxcGTO In "AutoAux" End
| 41>       NewCabsGTO In "AutoAux" End
| 42>       NewECP     Sn "SK-MCDHF-RSC" End
| 43>       NewGTO     Sn "cc-pVTZ-PP"   End
| 44>       NewAuxjGTO Sn "AutoAux" End
| 45>       NewAuxcGTO Sn "AutoAux" End
| 46>       NewCabsGTO Sn "AutoAux" End
| 47>       NewECP     Sb "SK-MCDHF-RSC" End
| 48>       NewGTO     Sb "cc-pVTZ-PP"   End
| 49>       NewAuxjGTO Sb "AutoAux" End
| 50>       NewAuxcGTO Sb "AutoAux" End
| 51>       NewCabsGTO Sb "AutoAux" End
| 52>       NewECP     Te "SK-MCDHF-RSC" End
| 53>       NewGTO     Te "cc-pVTZ-PP"   End
| 54>       NewAuxjGTO Te "AutoAux" End
| 55>       NewAuxcGTO Te "AutoAux" End
| 56>       NewCabsGTO Te "AutoAux" End
| 57>       NewECP     I  "SK-MCDHF-RSC" End
| 58>       NewGTO     I  "cc-pVTZ-PP"   End
| 59>       NewAuxjGTO I  "AutoAux" End
| 60>       NewAuxcGTO I  "AutoAux" End
| 61>       NewCabsGTO I  "AutoAux" End
| 62>       NewECP     Xe "SK-MCDHF-RSC" End
| 63>       NewGTO     Xe "cc-pVTZ-PP"   End
| 64>       NewAuxjGTO Xe "AutoAux" End
| 65>       NewAuxcGTO Xe "AutoAux" End
| 66>       NewCabsGTO Xe "AutoAux" End
| 67>     End
| 68> 
| 69>                          ****END OF INPUT****
================================================================================
Warning! AutoAux has not been tested for CABS - use at your own risk!
================================================================================

cite the ECPs for I  [SK MCDHF RSC] as follows:
O: B. Metz and H. Stoll, private communication (KAP)
Tl: B. Metz, M. Schweizer, H. Stoll, M. Dolg, W. Liu, Theor. Chem. Acc. 104, 22 (2000)
Ga-As, In-Sb, Pb-Bi: B. Metz, H. Stoll, M. Dolg, J. Chem. Phys. 113, 2563 (2000)
Se-Kr, Te-Xe, Po-Rn: K.A. Peterson, D. Figgen, E. Goll, H. Stoll, and M. Dolg, J. Chem. Phys., in press (2003)
Cu-Zn, Ag-Cd, Au-Hg: D. Figgen, G. Rauhut, M. Dolg, and H. Stoll, Chem. Phys. 311, 227 (2005)
Y-Pd: K.A. Peterson, D. Figgen, M. Dolg, H. Stoll, J. Chem. Phys. 126, 124101 (2007)
I: K. A. Peterson, B. C. Shepler, D. Figgen, H. Stoll, J. Phys. Chem. A 110, 13877 (2006)
Hf-Pt: D. Figgen, K.A. Peterson, M. Dolg, H. Stoll, J. Chem. Phys. 130, 164108 (2009)
Ca, Sr, Ba, Ra: I.S. Lim, H. Stoll, P. Schwerdtfeger, J. Chem. Phys. 124, 034107 (2006)
U: M. Dolg, X. Cao, J. Phys. Chem. A 113, 12573 (2009)

ECP parameters for I  [SK MCDHF RSC] have been obtained from:
cc-pVDZ-PP  EMSL  Basis Set Exchange Library   4/7/16 5:27 AM
Ca, Sr, Ba, Ra: http://www.tc.uni-koeln.de/PP/index.en.html 3/16/17 1:54 PM


----- Orbital basis set information -----
Your calculation utilizes the basis: cc-pVTZ 
       H, B-Ne : Obtained from the ccRepo (grant-hill.group.shef.ac.uk/ccrepo) Feb. 2017
                 T. H. Dunning, Jr., J. Chem. Phys. 90, 1007 (1989)
            He : Obtained from the ccRepo (grant-hill.group.shef.ac.uk/ccrepo) Feb. 2017
                 D. E. Woon, T. H. Dunning, Jr., J. Chem. Phys. 100, 2975 (1994)
  Li-Be, Na-Mg : Obtained from the ccRepo (grant-hill.group.shef.ac.uk/ccrepo) Feb. 2017
                 B. P. Prascher, D. E. Woon, K. A. Peterson, T. H. Dunning, Jr., A. K. Wilson, Theor. Chem. Acc. 128, 69 (2011)
         Al-Ar : Obtained from the ccRepo (grant-hill.group.shef.ac.uk/ccrepo) Feb. 2017
                 D. E. Woon, T. H. Dunning, Jr., J. Chem. Phys. 98, 1358 (1993)
            Ca : Obtained from the Peterson Research Group Website (tyr0.chem.wsu.edu/~kipeters) Feb. 2017
                 J. Koput, K. A. Peterson, J. Phys. Chem. 106, 9595 (2002)
         Sc-Zn : Obtained from the ccRepo (grant-hill.group.shef.ac.uk/ccrepo) Feb. 2017
                 N. B. Balabanov, K. A. Peterson, J. Chem. Phys. 123, 064107 (2005)
                 N. B. Balabanov, K. A. Peterson, J. Chem. Phys. 125, 074110 (2006)
         Ga-Kr : Obtained from the ccRepo (grant-hill.group.shef.ac.uk/ccrepo) Feb. 2017
                 A. K. Wilson, D. E. Woon, K. A. Peterson, T. H. Dunning, Jr., J. Chem. Phys. 110, 7667 (1999)
             Y : Obtained from the ccRepo (grant-hill.group.shef.ac.uk/ccrepo) Feb. 2017
                 K. A. Peterson, D. Figgen, M. Dolg, H. Stoll, J. Chem. Phys. 126, 124101 (2007)
        Ag, Au : Obtained from the Peterson Research Group Website (tyr0.chem.wsu.edu/~kipeters) Feb. 2017
                 K. A. Peterson, C. Puzzarini, Theor. Chem. Acc. 114, 283 (2005)

The basis set includes element-specific modifications.

Your calculation utilizes the basis: cc-pVTZ-PP 
       Ca, Sr, Ba, Ra : Obtained from the Peterson Research Group Website (tyr0.chem.wsu.edu/~kipeters) Feb. 2017
                        H. Li, H. Feng, W. Sun, Y. Zhang, Q. Fan, K. A. Peterson, Y. Xie, H. F. Schaefer III, Mol. Phys. 111, 2292 (2013)
  Cu-Zn, Ag-Cd, Au-Hg : Obtained from the ccRepo (grant-hill.group.shef.ac.uk/ccrepo) Feb. 2017
                        K. A. Peterson, C. Puzzarini, Theor. Chem. Acc. 114, 283 (2005)
  Ga-Kr, In-Xe, Tl-Rn : Obtained from the ccRepo (grant-hill.group.shef.ac.uk/ccrepo) Feb. 2017
                        K. A. Peterson, J. Chem. Phys. 119, 11099 (2003)
                        K. A. Peterson, D. Figgen, E. Goll, H. Stoll, M. Dolg, J. Chem. Phys. 119, 11113 (2003)
                 Y-Pd : Obtained from the ccRepo (grant-hill.group.shef.ac.uk/ccrepo) Feb. 2017
                        K. A. Peterson, D. Figgen, M. Dolg, H. Stoll, J. Chem. Phys. 126, 124101 (2007)
                Hf-Pt : Obtained from the ccRepo (grant-hill.group.shef.ac.uk/ccrepo) Feb. 2017
                        D. Figgen, K. A. Peterson, M. Dolg, H. Stoll, J. Chem. Phys. 130, 164108 (2009)
                    U : Obtained from the ccRepo (grant-hill.group.shef.ac.uk/ccrepo) Feb. 2020
                        K. A. Peterson, J. Chem. Phys. 142, 074105 (2015)

----- AuxJ basis set information -----
Your calculation utilizes the AutoAux generation procedure.
  G. L. Stoychev, A. A. Auer, F. Neese, J. Chem. Theory Comput. 13, 554 (2017)

The basis set includes element-specific modifications.

----- AuxC basis set information -----
Your calculation utilizes the AutoAux generation procedure.
  G. L. Stoychev, A. A. Auer, F. Neese, J. Chem. Theory Comput. 13, 554 (2017)

The basis set includes element-specific modifications.

----- CABS information -----
Your calculation utilizes the AutoAux generation procedure.
  G. L. Stoychev, A. A. Auer, F. Neese, J. Chem. Theory Comput. 13, 554 (2017)

The basis set includes element-specific modifications.


                    <<< The CABS basis set will be decontracted >>>

================================================================================
                                        WARNINGS
                       Please study these warnings very carefully!
================================================================================


WARNING: No MP2 level density has been requested!
         To caclulate MP2 level properties use
         %mp2 Density relaxed end
         or
         %mp2 Density unrelaxed end

WARNING: Post HF methods need fully converged wavefunctions
  ===> : Setting SCFConvForced true
         You can overwrite this default with %scf ConvForced false 


INFO   : the flag for use of the SHARK integral package has been found!


                       ****************************
                       * Single Point Calculation *
                       ****************************

---------------------------------
CARTESIAN COORDINATES (ANGSTROEM)
---------------------------------
  I     -0.000000   -0.000000    0.324673
  C     -0.000000   -0.000000   -1.802260
  H      0.000000    1.032733   -2.131368
  H      0.894373   -0.516367   -2.131368
  H     -0.894373   -0.516367   -2.131368

----------------------------
CARTESIAN COORDINATES (A.U.)
----------------------------
  NO LB      ZA    FRAG     MASS         X           Y           Z
   0 I    25.0000*   0   126.900   -0.000000   -0.000000    0.613543
   1 C     6.0000    0    12.011   -0.000000   -0.000000   -3.405778
   2 H     1.0000    0     1.008    0.000000    1.951583   -4.027702
   3 H     1.0000    0     1.008    1.690120   -0.975792   -4.027702
   4 H     1.0000    0     1.008   -1.690120   -0.975792   -4.027702
* core charge reduced due to ECP



           ************************************************************
           *        Program running with 30 parallel MPI-processes    *
           *              working on a common directory               *
           ************************************************************
------------------------------------------------------------------------------
                   ___                                                        
                  /   \      - P O W E R E D   B Y -                         
                 /     \                                                     
                 |  |  |   _    _      __       _____    __    __             
                 |  |  |  | |  | |    /  \     |  _  \  |  |  /  |          
                  \  \/   | |  | |   /    \    | | | |  |  | /  /          
                 / \  \   | |__| |  /  /\  \   | |_| |  |  |/  /          
                |  |  |   |  __  | /  /__\  \  |    /   |      \           
                |  |  |   | |  | | |   __   |  |    \   |  |\   \          
                \     /   | |  | | |  |  |  |  | |\  \  |  | \   \       
                 \___/    |_|  |_| |__|  |__|  |_| \__\ |__|  \__/        
                                                                              
                      - O R C A' S   B I G   F R I E N D -                    
                                      &                                       
                       - I N T E G R A L  F E E D E R -                       
                                                                              
 v1 FN, 2020, v2 2021                                                         
------------------------------------------------------------------------------


Reading SHARK input file ch3i_lw1x-p34_Compound_2.SHARKINP.tmp ... ok
----------------------
SHARK INTEGRAL PACKAGE
----------------------

Number of atoms                             ...      5
Number of basis functions                   ...    111
Number of shells                            ...     41
Maximum angular momentum                    ...      3
Integral batch strategy                     ... SHARK/LIBINT Hybrid
RI-J (if used) integral strategy            ... SPLIT-RIJ (Revised 2003 algorithm where possible)
Printlevel                                  ...      1
Contraction scheme used                     ... SEGMENTED contraction
Coulomb Range Separation                    ... NOT USED
Exchange Range Separation                   ... NOT USED
Finite Nucleus Model                        ... NOT USED
Auxiliary Coulomb fitting basis             ... AVAILABLE
   # of basis functions in Aux-J            ...    575
   # of shells in Aux-J                     ...    155
   Maximum angular momentum in Aux-J        ...      5
Auxiliary J/K fitting basis                 ... NOT available
Auxiliary Correlation fitting basis         ... AVAILABLE
   # of basis functions in Aux-C            ...    575
   # of shells in Aux-C                     ...    155
   Maximum angular momentum in Aux-C        ...      5
Auxiliary 'external' fitting basis          ... NOT available
Integral threshold                          ...     1.000000e-10
Primitive cut-off                           ...     1.000000e-11
Primitive pair pre-selection threshold      ...     1.000000e-11

Calculating pre-screening integrals         ... done (  0.1 sec) Dimension = 41
Organizing shell pair data                  ... done (  0.0 sec)
Shell pair information
Total number of shell pairs                 ...       861
Shell pairs after pre-screening             ...       861
Total number of primitive shell pairs       ...      5384
Primitive shell pairs kept                  ...      4582
          la=0 lb=0:    171 shell pairs
          la=1 lb=0:    234 shell pairs
          la=1 lb=1:     91 shell pairs
          la=2 lb=0:    144 shell pairs
          la=2 lb=1:    104 shell pairs
          la=2 lb=2:     36 shell pairs
          la=3 lb=0:     36 shell pairs
          la=3 lb=1:     26 shell pairs
          la=3 lb=2:     16 shell pairs
          la=3 lb=3:      3 shell pairs

Calculating one electron integrals          ... done (  0.0 sec)
Calculating ECP integrals                   ... done (  0.1 sec)
Calculating RI/J V-Matrix + Cholesky decomp.... done (  0.1 sec)
Calculating RI/C V-Matrix + Cholesky decomp.... done (  0.1 sec)
Calculating Nuclear repulsion               ... done (  0.0 sec) ENN=     61.891234478759 Eh

SHARK setup successfully completed in   0.7 seconds

Maximum memory used throughout the entire GTOINT-calculation: 23.1 MB


           ************************************************************
           *        Program running with 30 parallel MPI-processes    *
           *              working on a common directory               *
           ************************************************************

Diagonalization of the overlap matrix:
Smallest eigenvalue                        ... 1.794e-03
Time for diagonalization                   ...    0.003 sec
Threshold for overlap eigenvalues          ... 1.000e-08
Number of eigenvalues below threshold      ... 0
Time for construction of square roots      ...    0.016 sec
Total time needed                          ...    0.021 sec

Atom 0: N(Shells)= 13 and 18 - projection required
--------------------
COSX GRID GENERATION
--------------------

GRIDX 1
-------
General Integration Accuracy     IntAcc      ... 4.020
Radial Grid Type                 RadialGrid  ... OptM3 with GC (2021)
Angular Grid (max. ang.)         AngularGrid ... 2 (Lebedev-110)
Angular grid pruning method      GridPruning ... 4 (adaptive)
Weight generation scheme         WeightScheme... Becke
Basis function cutoff            BFCut       ... 1.0000e-10
Integration weight cutoff        WCut        ... 1.0000e-14
Angular grids for H and He will be reduced by one unit
Partially contracted basis set               ... on
Rotationally invariant grid construction     ... off

Total number of grid points                  ...     7311
Total number of batches                      ...      116
Average number of points per batch           ...       63
Average number of grid points per atom       ...     1462
UseSFitting                                  ... on

GRIDX 2
-------
General Integration Accuracy     IntAcc      ... 4.338
Radial Grid Type                 RadialGrid  ... OptM3 with GC (2021)
Angular Grid (max. ang.)         AngularGrid ... 3 (Lebedev-194)
Angular grid pruning method      GridPruning ... 4 (adaptive)
Weight generation scheme         WeightScheme... Becke
Basis function cutoff            BFCut       ... 1.0000e-10
Integration weight cutoff        WCut        ... 1.0000e-14
Angular grids for H and He will be reduced by one unit
Partially contracted basis set               ... on
Rotationally invariant grid construction     ... off

Total number of grid points                  ...    15478
Total number of batches                      ...      245
Average number of points per batch           ...       63
Average number of grid points per atom       ...     3096
UseSFitting                                  ... on

GRIDX 3
-------
General Integration Accuracy     IntAcc      ... 4.871
Radial Grid Type                 RadialGrid  ... OptM3 with GC (2021)
Angular Grid (max. ang.)         AngularGrid ... 4 (Lebedev-302)
Angular grid pruning method      GridPruning ... 4 (adaptive)
Weight generation scheme         WeightScheme... Becke
Basis function cutoff            BFCut       ... 1.0000e-10
Integration weight cutoff        WCut        ... 1.0000e-14
Angular grids for H and He will be reduced by one unit
Partially contracted basis set               ... on
Rotationally invariant grid construction     ... off

Total number of grid points                  ...    30093
Total number of batches                      ...      473
Average number of points per batch           ...       63
Average number of grid points per atom       ...     6019
UseSFitting                                  ... on

Time for X-Grid setup             =    0.617 sec

 re-compute Schwartz prescreening matrix in partically contracted basis (1) ...done (   0.107 sec)
--------------
SCF ITERATIONS
--------------
ITER       Energy         Delta-E        Max-DP      RMS-DP      [F,P]     Damp
               ***  Starting incremental Fock matrix formation  ***
  0   -205.0216597975   0.00000000000023.70829239  0.37942867  1.7540582 0.7000
  1   -240.2718002926 -35.25014049506116.64873266  0.25870832  0.9221225 0.7000
  2   -268.5169063614 -28.24510606880211.66172236  0.18099798  0.6538935 0.7000
  3   -288.2348053634 -19.717899002011 8.16784347  0.12688014  0.4612840 0.7000
  4   -302.0212444437 -13.786439080292 5.72077303  0.08899228  0.3201285 0.7000
  5   -311.6768230595  -9.655578615872 4.00687835  0.06243158  0.2174251 0.7000
                               ***Turning on DIIS***
  6   -318.4438848889  -6.767061829371 2.80646104  0.04380236  0.1442856 0.7000
  7   -323.2601826929  -4.816297803971 6.55675544  0.10266003  0.0934675 0.0000
  8   -334.3190087946 -11.058826101758 0.10233437  0.00160652  0.0317007 0.0000
  9   -334.3570744970  -0.038065702357 0.03714179  0.00047580  0.0153904 0.0000
 10   -334.3218752470   0.035199249937 0.01830483  0.00024402  0.0075896 0.0000
 11   -334.2977454662   0.024129780894 0.00782949  0.00012505  0.0035220 0.0000
                      *** Initiating the SOSCF procedure ***
                           *** Shutting down DIIS ***
                      *** Re-Reading the Fockian *** 
                      *** Removing any level shift *** 
ITER      Energy       Delta-E        Grad      Rot      Max-DP    RMS-DP
 12   -334.29338281   0.0043626582  0.001349  0.001349  0.002728  0.000065
               *** Restarting incremental Fock matrix formation ***
 13   -334.29101385   0.0023689567  0.000392  0.000701  0.001306  0.000029
 14   -334.29101486  -0.0000010055  0.000096  0.000423  0.000959  0.000020
                 **** Energy Check signals convergence ****
              ***Rediagonalizing the Fockian in SOSCF/NRSCF***

               *****************************************************
               *                     SUCCESS                       *
               *           SCF CONVERGED AFTER  15 CYCLES          *
               *****************************************************

Old exchange energy                            =    -27.267183466 Eh
New exchange energy                            =    -27.267193755 Eh
Exchange energy change after final integration =     -0.000010289 Eh
Total energy after final integration           =   -334.291025411 Eh
Final COS-X integration done in                =     0.277 sec
Total Energy       :         -334.29102541 Eh           -9096.52126 eV
  Last Energy change         ...   -2.6599e-07  Tolerance :   1.0000e-06
  Last MAX-Density change    ...    1.7764e-15  Tolerance :   1.0000e-05
             **** THE GBW FILE WAS UPDATED (ch3i_lw1x-p34_Compound_2.gbw) ****
             **** DENSITY ch3i_lw1x-p34_Compound_2.scfp WAS UPDATED ****
             **** ENERGY FILE WAS UPDATED (ch3i_lw1x-p34_Compound_2.en.tmp) ****
             **** THE GBW FILE WAS UPDATED (ch3i_lw1x-p34_Compound_2.gbw) ****
             **** DENSITY ch3i_lw1x-p34_Compound_2.scfp WAS UPDATED ****
----------------
ORBITAL ENERGIES
----------------

  NO   OCC          E(Eh)            E(eV) 
   0   2.0000     -11.280216      -306.9503 
   1   2.0000      -7.712114      -209.8573 
   2   2.0000      -5.543785      -150.8541 
   3   2.0000      -5.534254      -150.5947 
   4   2.0000      -5.534254      -150.5947 
   5   2.0000      -2.273299       -61.8596 
   6   2.0000      -2.268527       -61.7298 
   7   2.0000      -2.268527       -61.7298 
   8   2.0000      -2.258005       -61.4434 
   9   2.0000      -2.257997       -61.4432 
  10   2.0000      -1.002262       -27.2729 
  11   2.0000      -0.837849       -22.7990 
  12   2.0000      -0.605392       -16.4736 
  13   2.0000      -0.605391       -16.4735 
  14   2.0000      -0.463627       -12.6159 
  15   2.0000      -0.360457        -9.8085 
  16   2.0000      -0.360457        -9.8085 
  17   0.0000       0.095843         2.6080 
  18   0.0000       0.163838         4.4583 
  19   0.0000       0.201162         5.4739 
  20   0.0000       0.201165         5.4740 
  21   0.0000       0.278769         7.5857 
  22   0.0000       0.343900         9.3580 
  23   0.0000       0.343902         9.3581 
  24   0.0000       0.386875        10.5274 
  25   0.0000       0.397186        10.8080 
  26   0.0000       0.397188        10.8080 
  27   0.0000       0.454559        12.3692 
  28   0.0000       0.454562        12.3693 
  29   0.0000       0.472448        12.8560 
  30   0.0000       0.483668        13.1613 
  31   0.0000       0.483671        13.1614 
  32   0.0000       0.615693        16.7539 
  33   0.0000       0.619785        16.8652 
  34   0.0000       0.619791        16.8654 
  35   0.0000       0.687933        18.7196 
  36   0.0000       0.821286        22.3483 
  37   0.0000       0.821290        22.3484 
  38   0.0000       0.831916        22.6376 
  39   0.0000       1.036271        28.1984 
  40   0.0000       1.046472        28.4759 
  41   0.0000       1.046473        28.4760 
  42   0.0000       1.156377        31.4666 
  43   0.0000       1.156384        31.4668 
  44   0.0000       1.163354        31.6565 
  45   0.0000       1.181831        32.1593 
  46   0.0000       1.182479        32.1769 
  47   0.0000       1.207893        32.8684 
  48   0.0000       1.207895        32.8685 
  49   0.0000       1.285733        34.9866 
  50   0.0000       1.339311        36.4445 
  51   0.0000       1.428165        38.8623 
  52   0.0000       1.428176        38.8627 
  53   0.0000       1.462158        39.7874 
  54   0.0000       1.479527        40.2600 
  55   0.0000       1.479527        40.2600 
  56   0.0000       1.600931        43.5635 
  57   0.0000       1.600938        43.5638 
  58   0.0000       1.653965        45.0067 
  59   0.0000       1.653976        45.0070 
  60   0.0000       1.771081        48.1936 
  61   0.0000       1.771088        48.1938 
  62   0.0000       1.805068        49.1184 
  63   0.0000       1.829614        49.7863 
  64   0.0000       2.432557        66.1933 
  65   0.0000       2.432562        66.1934 
  66   0.0000       2.536076        69.0101 
  67   0.0000       2.681995        72.9808 
  68   0.0000       2.806959        76.3812 
  69   0.0000       2.806978        76.3818 
  70   0.0000       2.982564        81.1597 
  71   0.0000       2.982593        81.1605 
  72   0.0000       3.089077        84.0581 
  73   0.0000       3.101144        84.3864 
  74   0.0000       3.134002        85.2805 
  75   0.0000       3.134010        85.2808 
  76   0.0000       3.260552        88.7241 
  77   0.0000       3.260560        88.7243 
  78   0.0000       3.394382        92.3658 
  79   0.0000       3.394387        92.3660 
  80   0.0000       3.486113        94.8619 
  81   0.0000       3.563736        96.9742 
  82   0.0000       3.688795       100.3772 
  83   0.0000       3.688810       100.3776 
  84   0.0000       3.753689       102.1431 
  85   0.0000       3.760928       102.3401 
  86   0.0000       3.760933       102.3402 
  87   0.0000       4.075389       110.8970 
  88   0.0000       4.121644       112.1556 
  89   0.0000       4.121649       112.1558 
  90   0.0000       4.235005       115.2404 
  91   0.0000       4.235011       115.2405 
  92   0.0000       4.254655       115.7751 
  93   0.0000       4.323184       117.6398 
  94   0.0000       4.343374       118.1892 
  95   0.0000       4.343377       118.1893 
  96   0.0000       4.515334       122.8685 
  97   0.0000       4.844841       131.8348 
  98   0.0000       5.044732       137.2741 
  99   0.0000       5.044747       137.2745 
 100   0.0000       5.274694       143.5317 
 101   0.0000       5.339010       145.2819 
 102   0.0000       5.339025       145.2822 
 103   0.0000       5.517226       150.1314 
 104   0.0000       5.517231       150.1315 
 105   0.0000       5.578121       151.7884 
 106   0.0000       5.591604       152.1553 
 107   0.0000       6.155586       167.5020 
 108   0.0000       6.155599       167.5024 
 109   0.0000      13.139653       357.5481 
 110   0.0000      58.955466      1604.2598 
Total SCF time: 0 days 0 hours 0 min 9 sec 

Maximum memory used throughout the entire SCF-calculation: 64.7 MB


           ************************************************************
           *        Program running with 30 parallel MPI-processes    *
           *              working on a common directory               *
           ************************************************************

------------------------------------------------------------------------------
                                ORCA  MP2 
------------------------------------------------------------------------------

Freezing NCore=10 chemical core electrons
Initializing SHARK ... done


------------------------------------------------------------------------------
                           ORCA ORBITAL LOCALIZATION
------------------------------------------------------------------------------

Input orbitals are from                  ... ch3i_lw1x-p34_Compound_2.gbw
Output orbitals are to                   ... ch3i_lw1x-p34_Compound_2.loc
Max. number of iterations                ... 128
Localizations seeded randomly            ... off
Convergence tolerance                    ... 1.000e-06
Treshold for strong local MOs            ... 9.500e-01
Treshold for bond MOs                    ... 8.500e-01
Operator                                 ... 0
Orbital range for localization           ... 5 to 16
Localization criterion                   ... FOSTER-BOYS (AUGMENTED HESSIAN)
Doing the dipole integrals     ... o.k.
Initial value of the localization sum :    46.399195
ITERATION   0 : L=   53.5633773437 DL=  7.16e+00 (AVERGE_DL)=    0.3294665538 
ITERATION   1 : L=   58.5297715128 DL=  4.97e+00 (AVERGE_DL)=    0.2743144118 
ITERATION   2 : L=   58.7399718924 DL=  2.10e-01 (AVERGE_DL)=    0.0564345128 
ITERATION   3 : L=   58.7456922135 DL=  5.72e-03 (AVERGE_DL)=    0.0093097547 
ITERATION   4 : L=   58.7461635116 DL=  4.71e-04 (AVERGE_DL)=    0.0026722424 
ITERATION   5 : L=   58.7462446426 DL=  8.11e-05 (AVERGE_DL)=    0.0011087189 
[...]
 140   0.0000       8.369475       227.7450 
 141   0.0000       8.511573       231.6117 
 142   0.0000      11.112980       302.3996 
 143   0.0000      11.491965       312.7123 
 144   0.0000      11.491967       312.7123 
 145   0.0000      13.307456       362.1143 
 146   0.0000      13.940599       379.3430 
 147   0.0000      13.940616       379.3434 
 148   0.0000      14.011706       381.2779 
 149   0.0000      14.011707       381.2779 
 150   0.0000      14.259538       388.0218 
 151   0.0000      15.028085       408.9350 
 152   0.0000      15.028088       408.9351 
 153   0.0000      15.273152       415.6036 
 154   0.0000      15.623376       425.1337 
 155   0.0000      15.623385       425.1339 
 156   0.0000      22.361591       608.4898 
 157   0.0000      42.517049      1156.9477 
 158   0.0000      42.517049      1156.9477 
 159   0.0000      42.693803      1161.7574 
 160   0.0000      50.858737      1383.9366 
 161   0.0000      51.112917      1390.8532 
 162   0.0000      51.112924      1390.8534 
 163   0.0000      63.016113      1714.7556 
 164   0.0000      83.993747      2285.5861 
Total SCF time: 0 days 0 hours 0 min 3 sec 

Maximum memory used throughout the entire SCF-calculation: 72.5 MB


           ************************************************************
           *        Program running with 30 parallel MPI-processes    *
           *              working on a common directory               *
           ************************************************************

------------------------------------------------------------------------------
                                ORCA  MP2 
------------------------------------------------------------------------------

Freezing NCore=0 chemical core electrons
Initializing SHARK ... done


------------------------------------------------------------------------------
                           ORCA ORBITAL LOCALIZATION
------------------------------------------------------------------------------

Input orbitals are from                  ... ch3i_lw1x-p34_Compound_6.gbw
Output orbitals are to                   ... ch3i_lw1x-p34_Compound_6.loc
Max. number of iterations                ... 128
Localizations seeded randomly            ... off
Convergence tolerance                    ... 1.000e-06
Treshold for strong local MOs            ... 9.500e-01
Treshold for bond MOs                    ... 8.500e-01
Operator                                 ... 0
Orbital range for localization           ... 0 to 16
Localization criterion                   ... FOSTER-BOYS (AUGMENTED HESSIAN)
Doing the dipole integrals     ... o.k.
Initial value of the localization sum :    60.974816
ITERATION   0 : L=   72.4402110827 DL=  1.15e+01 (AVERGE_DL)=    0.2903521544 
ITERATION   1 : L=   74.2440267660 DL=  1.80e+00 (AVERGE_DL)=    0.1151666211 
ITERATION   2 : L=   74.4463812655 DL=  2.02e-01 (AVERGE_DL)=    0.0385733163 
ITERATION   3 : L=   74.4643718330 DL=  1.80e-02 (AVERGE_DL)=    0.0115014601 
ITERATION   4 : L=   74.4713638262 DL=  6.99e-03 (AVERGE_DL)=    0.0071701963 
ITERATION   5 : L=   74.4759010711 DL=  4.54e-03 (AVERGE_DL)=    0.0057759930 
ITERATION   6 : L=   74.4794673775 DL=  3.57e-03 (AVERGE_DL)=    0.0051208243 
ITERATION   7 : L=   74.4824822665 DL=  3.01e-03 (AVERGE_DL)=    0.0047083225 
ITERATION   8 : L=   74.4850851037 DL=  2.60e-03 (AVERGE_DL)=    0.0043747582 
ITERATION   9 : L=   74.4873228195 DL=  2.24e-03 (AVERGE_DL)=    0.0040563274 
ITERATION  10 : L=   74.4892169809 DL=  1.89e-03 (AVERGE_DL)=    0.0037319777 
ITERATION  11 : L=   74.4907900690 DL=  1.57e-03 (AVERGE_DL)=    0.0034010034 
ITERATION  12 : L=   74.4920725982 DL=  1.28e-03 (AVERGE_DL)=    0.0030708894 
ITERATION  13 : L=   74.4931016341 DL=  1.03e-03 (AVERGE_DL)=    0.0027507163 
ITERATION  14 : L=   74.4939167038 DL=  8.15e-04 (AVERGE_DL)=    0.0024480931 
ITERATION  15 : L=   74.4945560385 DL=  6.39e-04 (AVERGE_DL)=    0.0021681767 
ITERATION  16 : L=   74.4950541270 DL=  4.98e-04 (AVERGE_DL)=    0.0019137438 
ITERATION  17 : L=   74.4954405699 DL=  3.86e-04 (AVERGE_DL)=    0.0016856725 
ITERATION  18 : L=   74.4957398817 DL=  2.99e-04 (AVERGE_DL)=    0.0014835170 
ITERATION  19 : L=   74.4959718493 DL=  2.32e-04 (AVERGE_DL)=    0.0013060031 
ITERATION  20 : L=   74.4961521436 DL=  1.80e-04 (AVERGE_DL)=    0.0011513876 
ITERATION  21 : L=   74.4962930109 DL=  1.41e-04 (AVERGE_DL)=    0.0010177370 
ITERATION  22 : L=   74.4964039250 DL=  1.11e-04 (AVERGE_DL)=    0.0009030754 
ITERATION  23 : L=   74.4964921593 DL=  8.82e-05 (AVERGE_DL)=    0.0008054696 
ITERATION  24 : L=   74.4965632704 DL=  7.11e-05 (AVERGE_DL)=    0.0007231014 
ITERATION  25 : L=   74.4966214832 DL=  5.82e-05 (AVERGE_DL)=    0.0006542440 
ITERATION  26 : L=   74.4966700024 DL=  4.85e-05 (AVERGE_DL)=    0.0005972930 
ITERATION  27 : L=   74.4967112504 DL=  4.12e-05 (AVERGE_DL)=    0.0005507218 
ITERATION  28 : L=   74.4967470584 DL=  3.58e-05 (AVERGE_DL)=    0.0005131215 
ITERATION  29 : L=   74.4967788055 DL=  3.17e-05 (AVERGE_DL)=    0.0004831506 
ITERATION  30 : L=   74.4968075312 DL=  2.87e-05 (AVERGE_DL)=    0.0004595852 
ITERATION  31 : L=   74.4968340183 DL=  2.65e-05 (AVERGE_DL)=    0.0004413138 
ITERATION  32 : L=   74.4968588556 DL=  2.48e-05 (AVERGE_DL)=    0.0004273491 
ITERATION  33 : L=   74.4968824848 DL=  2.36e-05 (AVERGE_DL)=    0.0004168270 
ITERATION  34 : L=   74.4969052403 DL=  2.28e-05 (AVERGE_DL)=    0.0004090474 
ITERATION  35 : L=   74.4969273744 DL=  2.21e-05 (AVERGE_DL)=    0.0004034233 
ITERATION  36 : L=   74.4969490779 DL=  2.17e-05 (AVERGE_DL)=    0.0003994803 
ITERATION  37 : L=   74.4969704974 DL=  2.14e-05 (AVERGE_DL)=    0.0003968584 
ITERATION  38 : L=   74.4969917460 DL=  2.12e-05 (AVERGE_DL)=    0.0003952719 
ITERATION  39 : L=   74.4970129138 DL=  2.12e-05 (AVERGE_DL)=    0.0003945193 
ITERATION  40 : L=   74.4970340712 DL=  2.12e-05 (AVERGE_DL)=    0.0003944223 
ITERATION  41 : L=   74.4970552811 DL=  2.12e-05 (AVERGE_DL)=    0.0003949122 
DETECTED SLOW CONVERGENCE - QUITTING

------------------------------------------------------
AUGMENTED HESSIAN OPTIMIZATION OF FOSTER-BOYS ORBITALS
------------------------------------------------------

Spin operator:           0
Orbital window:          0 to 16
Number of iterations:    128
Gradient tolerance:      1.000e-06
Number of pairs:         136
Davidson threshold:      2000
Diagonalization method:  LAPACK
Iter:    0   L: 74.4970552811   Grad. norm: 7.985526e-03
   *** Detected a saddle point. ***
       Augmented Hessian eigenvalues:  7.23e-02  2.06e-03 -6.87e-03 -2.22e-02 ... 
Iter:    1   L: 74.5277590471   Grad. norm: 6.340967e-01
Iter:    2   L: 74.5648352299   Grad. norm: 2.675686e-01
Iter:    3   L: 74.5713706080   Grad. norm: 1.695087e-01
Iter:    4   L: 74.5841510326   Grad. norm: 1.297226e-01
Iter:    5   L: 74.5933582582   Grad. norm: 1.239258e-01
Iter:    6   L: 74.5956140936   Grad. norm: 1.167916e-01
Iter:    7   L: 74.6011813408   Grad. norm: 8.334654e-02
Iter:    8   L: 74.6022462973   Grad. norm: 7.033210e-03
   *** Likely close to a maximum now. ***
       Augmented Hessian eigenvalues:  1.28e-05 -3.60e-02 -5.00e-02 -5.04e-02 ... 
Iter:    9   L: 74.6022527270   Grad. norm: 2.879520e-05
Iter:   10   L: 74.6022527273   Grad. norm: 3.792477e-09
LOCALIZATION HAS CONVERGED.

Eigenvalues of the Hessian:
  0 -3.599e-02
  1 -4.988e-02
  2 -4.989e-02
  3 -2.292e-01
  4 -2.292e-01
  5 -8.286e-01
  6 -8.339e-01
  7 -1.025e+00
  8 -1.025e+00
  9 -1.071e+00
    ...


------------------------------------------------------------------------------- 
                    LOCALIZED MOLECULAR ORBITAL COMPOSITIONS                   
------------------------------------------------------------------------------- 

The Mulliken populations for each LMO on each atom are computed
The LMO`s will be ordered according to atom index and type
  (A) Strongly localized MO`s have populations of >=0.950 on one atom
  (B) Two center bond orbitals have populations of >=0.850 on two atoms
  (C) Other MO`s are considered to be `delocalized`

FOUND  -  13 strongly local MO`s
       -   4 two center bond MO`s
       -   0 significantly delocalized MO`s

Rather strongly localized orbitals:
MO  12:   1C  -   1.000807
MO  11:   0I  -   1.005422
MO  10:   0I  -   1.000877
MO   9:   0I  -   1.000878
MO   8:   0I  -   1.000877
MO   7:   0I  -   1.000034
MO   6:   0I  -   1.000034
MO   5:   0I  -   1.005426
MO   4:   0I  -   1.005422
MO   3:   0I  -   0.998531
MO   2:   0I  -   0.998531
MO   1:   0I  -   0.998531
MO   0:   0I  -   1.000034
Bond-like localized orbitals:
MO  16:   4H  -   0.471970  and   1C  -   0.543051
MO  15:   3H  -   0.471970  and   1C  -   0.543051
MO  14:   2H  -   0.471942  and   1C  -   0.543082
MO  13:   1C  -   0.487853  and   0I  -   0.530773
Localized MO's were stored in: ch3i_lw1x-p34_Compound_6.loc



Calculating differential overlap integrals ... ok
Threshold for domain construction in prescreening: TCutDOPre = 3.0e-02

--------------------------
ELECTRON PAIR PRESCREENING
--------------------------

Dipole-based pair screening          .... used

   TCutDOij = 1.000000e-05
   TCutPre  = 1.000000e-06
   .... Finished loop over pairs
Total time spent in the prescreening                  ...     0.016 sec
sum of pair energies estimated for screened out pairs ...       0.000000000000 Eh

---------------------------
MAP CONSTRUCTION THRESHOLDS
---------------------------
    TCutMKN     ...     1.0e-03
    TCutDO      ...     5.0e-03
    TCutC(MO)   ...     1.0e-03
    TCutC(PAO)  ...     1.0e-03

--------------------------------
LOCAL RI TRANSFORMATION (IAVPAO)
--------------------------------

Orbital window:       0 to 16
Number of PAOs:     165
Basis functions:    165 (55 shells)
Aux. functions:     744 (180 shells)
Use SHARK:           on

Processing maps (0.0 sec)
Average map sizes:
   Aux shells -> MOs              17.0
   Aux shells -> PAOs            165.0
   MOs        -> AO shells        55.0
   PAOs       -> AO shells        55.0

Calculating integrals (0.5 sec, 15.930 MB)
Sorting integrals (0.1 sec, 15.922 MB)
Total time for the integral transformation: 0.8 sec

----------------------------
Local MP2 Energy Calculation
----------------------------
Number of orbital pairs included:    153
Truncation parameters:
    PAOOverlapThresh    =        1.000e-08
    TCutPNO             =        1.000e-09

Spin component scaling                      .... not used
MP2 energy scaling factor                   .... 1.000

Formation of semicanonical amplitudes.
 10% done.
 20% done.
 30% done.
 40% done.
 50% done.
 60% done.
 70% done.
 80% done.
 90% done.
100% done.

Finished the LMP2 guess in 0.6 sec.

Average number of PAOs per pair        165.0
Average number of nrPAOs per pair      148.0
Average number of PNOs per pair         74.0
Average number of AUX  per pair        618.0

Semicanonical MP2 energy:                   -1.037127253694 Eh
Semicanonical MP2 energy in PNO basis:      -1.037108186585 Eh

Initial amplitudes guess done. Entering DLPNO-MP2 iteration loop:
   Max. no of iterations          ...  100
   Energy convergence tolerance   ...    1.0e-06 Eh
   Residual convergence tolerance ...    5.0e-06
   Fock matrix cutoff             ...    1.0e-05 Eh
   Max # vectors in DIIS          ...  7
   Start iteration of DIIS        ...  0
   Levelshift                     ...  2.000e-01 Eh
   Damping before turning on DIIS ...  5.000e-01
   Damping after turning on DIIS  ...  0.000e+00

                           *** Turning on DIIS ***
Iter=   0:  ECORR= -1.111691657207  DE=   7.5e-02 RMAX=   1.6e-02
Iter=   1:  ECORR= -1.153874607586  DE=   4.2e-02 RMAX=   7.6e-03
Iter=   2:  ECORR= -1.170016562736  DE=   1.6e-02 RMAX=   3.8e-03
Iter=   3:  ECORR= -1.172778349816  DE=   2.8e-03 RMAX=   2.7e-03
Iter=   4:  ECORR= -1.173729905255  DE=   9.5e-04 RMAX=   1.0e-03
Iter=   5:  ECORR= -1.173895444227  DE=   1.7e-04 RMAX=   5.9e-04
Iter=   6:  ECORR= -1.173905152733  DE=   9.7e-06 RMAX=   1.8e-04
Iter=   7:  ECORR= -1.173899880873  DE=   5.3e-06 RMAX=   9.5e-05
Iter=   8:  ECORR= -1.173904600387  DE=   4.7e-06 RMAX=   4.2e-05
Iter=   9:  ECORR= -1.173903321097  DE=   1.3e-06 RMAX=   1.6e-05
Iter=  10:  ECORR= -1.173905154270  DE=   1.8e-06 RMAX=   8.5e-06
Iter=  11:  ECORR= -1.173905198324  DE=   4.4e-08 RMAX=   3.5e-06 => CONVERGED

Finished the DLPNO-MP2 iterations in 23.4 sec.

LMP2 correlation energy (all non-screened pairs)      ...     -1.173905198324 Eh
Semicanonical PNO correction to energy                ...     -0.000019067110 Eh
Sum of pair energies estimated for screened out pairs ...      0.000000000000 Eh
                                                         -----------------------
Total:                                                ...     -1.173924265434 Eh

------------------------------------------------------
 DLPNO-MP2 CORRELATION ENERGY:      -1.173924265434 Eh
------------------------------------------------------

TIMINGS FOR DLPNO-MP2:
Localization                             ...        0.335 sec
Differential overlap integrals           ...        1.053 sec
Prescreening                             ...        0.197 sec
Map setup                                ...        0.002 sec
(ia|v) trafo                             ...        0.781 sec
Semicanonical amplitudes                 ...        0.211 sec
PNO construction                         ...        0.031 sec
DLPNO-MP2 iterations                     ...       23.398 sec
                                             ----------------
Total time                                         27.665 sec


---------------------------------------
MP2 TOTAL ENERGY:     -335.466187714 Eh
---------------------------------------

Maximum memory used throughout the entire MP2-calculation: 140.3 MB

-------------------------   --------------------
FINAL SINGLE POINT ENERGY      -335.466187713794
-------------------------   --------------------


                            ***************************************
                            *     ORCA property calculations      *
                            ***************************************


  WARNING: The energy has been calculated at the MP2 level but the densities
           used in the property calculations are still SCF densities
           MP2 response densities have not been calculated 
           use %mp2 Density relaxed end
           or  %mp2 Density unrelaxed end

                                    ---------------------
                                    Active property flags
                                    ---------------------
   (+) Dipole Moment


------------------------------------------------------------------------------
                       ORCA ELECTRIC PROPERTIES CALCULATION
------------------------------------------------------------------------------

Dipole Moment Calculation                       ... on
Quadrupole Moment Calculation                   ... off
Polarizability Calculation                      ... off
GBWName                                         ... ch3i_lw1x-p34_Compound_6.gbw
Electron density                                ... ch3i_lw1x-p34_Compound_6.scfp
The origin for moment calculation is the CENTER OF MASS  = ( 0.000000, -0.000000  0.174531)

-------------
DIPOLE MOMENT
-------------
                                X             Y             Z
Electronic contribution:      0.00000      -0.00000      22.35339
Nuclear contribution   :      0.00000      -0.00000     -23.11325
                        -----------------------------------------
Total Dipole Moment    :      0.00000      -0.00001      -0.75986
                        -----------------------------------------
Magnitude (a.u.)       :      0.75986
Magnitude (Debye)      :      1.93141



--------------------
Rotational spectrum 
--------------------
 
Rotational constants in cm-1:     5.226836     0.253386     0.253386 
Rotational constants in MHz : 156696.600267  7596.333598  7596.333474 

 Dipole components along the rotational axes: 
x,y,z [a.u.] :     0.759860     0.000006     0.000000 
x,y,z [Debye]:     1.931412     0.000015     0.000000 

 

Timings for individual modules:

Sum of individual times         ...       37.472 sec (=   0.625 min)
GTO integral calculation        ...        2.792 sec (=   0.047 min)   7.5 %
SCF iterations                  ...        5.164 sec (=   0.086 min)  13.8 %
MP2 module                      ...       29.516 sec (=   0.492 min)  78.8 %
================================================================================

cite the ECPs for I  [Def2-ECP] as follows:
Ce-Yb(ecp-28): M. Dolg, H. Stoll, H.Preuss, J. Chem. Phys., 1989, 90, 1730-1734.
Y-Cd(ecp-28), Hf-Hg(ecp-46): D. Andrae,U. Haeussermann, M. Dolg, H. Stoll, H. Preuss, Theor. Chim. Acta, 1990, 77, 123-141.
In-Sb(ecp-28), Tl-Bi(ecp-46): B. Metz, H. Stoll, M. Dolg, J. Chem. Phys., 2000, 113, 2563-2569.
Te-Xe(ecp-28), Po-Rn(ecp-46): K. A. Peterson, D. Figgen, E. Goll, H. Stoll, M. Dolg, J. Chem. Phys., 2003, 119, 11113-11123.
Rb(ecp-28), Cs(ecp-46): T. Leininger, A. Nicklass, W. Kuechle, H. Stoll, M. Dolg, A. Bergner, Chem. Phys. Lett., 1996, 255, 274-280.
Sr(ecp-28), Ba(ecp-46): M. Kaupp, P. V. Schleyer, H. Stoll and H. Preuss, J. Chem. Phys., 1991, 94, 1360-1366.
La(ecp-46): M. Dolg, H. Stoll, A. Savin, H. Preuss, Theor. Chim. Acta, 1989, 75, 173-194.
Lu(ecp-28): X. Cao, M. Dolg, J. Chem. Phys., 2001, 115, 7348-7355.

ECP parameters for I  [Def2-ECP] have been obtained from:
TURBOMOLE (7.0.2)

----- Orbital basis set information -----
Your calculation utilizes the basis: def2-SVP
   F. Weigend and R. Ahlrichs, Phys. Chem. Chem. Phys. 7, 3297 (2005).



----------------------------------------------------------------------------------------------
                                        COMPOUND BLOCK                                        
                                     SUMMARY OF VARIABLES                                     
----------------------------------------------------------------------------------------------

Variable Name                                           Value             Evaluation String
-------------                                           -----             -----------------
HF_DZ                                    |            -334.29346233    |  
EC_DZ                                    |              -1.02974755    |  
CC_DZ                                    |              -1.01612639    |  EC_DZ-T_DZ
T_DZ                                     |              -0.01362116    |  
HF_TZ                                    |            -334.29669485    |  
EC_TZ                                    |              -1.11948421    |  
CC_TZ                                    |              -1.08795409    |  EC_TZ-T_TZ
T_TZ                                     |              -0.03153011    |  
HF_CBS                                   |            -334.29718509    |  HF_TZ-(HF_TZ-HF_DZ)*3^-5/(3^-5-2^-5)
CC_CBS                                   |              -1.10026316    |  CC_TZ-(CC_TZ-CC_DZ)*3^-4.7405/(3^-4.7405-2^-4.7405)
T_CBS                                    |              -0.04497894    |  T_TZ-(T_TZ-T_DZ)*3^-2.0879/(3^-2.0879-2^-2.0879)
MP_FC                                    |            -335.42042138    |  
MP_FU                                    |            -335.46618771    |  
MP_CV                                    |              -0.04576633    |  MP_FU-MP_FC
MP_PP                                    |            -334.68064364    |  
MP_DK                                    |           -7150.89739631    |  
MP_REL                                   |           -6816.21675267    |  MP_DK-MP_PP
LW1X                                     |           -7151.70494620    |  HF_CBS+CC_CBS+T_CBS+MP_CV+MP_REL
                             ****ORCA TERMINATED NORMALLY****
TOTAL RUN TIME: 0 days 0 hours 19 minutes 13 seconds 387 msec
