
                                 *****************
                                 * O   R   C   A *
                                 *****************

                                            #,                                       
                                            ###                                      
                                            ####                                     
                                            #####                                    
                                            ######                                   
                                           ########,                                 
                                     ,,################,,,,,                         
                               ,,#################################,,                 
                          ,,##########################################,,             
                       ,#########################################, ''#####,          
                    ,#############################################,,   '####,        
                  ,##################################################,,,,####,       
                ,###########''''           ''''###############################       
              ,#####''   ,,,,##########,,,,          '''####'''          '####       
            ,##' ,,,,###########################,,,                        '##       
           ' ,,###''''                  '''############,,,                           
         ,,##''                                '''############,,,,        ,,,,,,###''
      ,#''                                            '''#######################'''  
     '                                                          ''''####''''         
             ,#######,   #######,   ,#######,      ##                                
            ,#'     '#,  ##    ##  ,#'     '#,    #''#        ######   ,####,        
            ##       ##  ##   ,#'  ##            #'  '#       #        #'  '#        
            ##       ##  #######   ##           ,######,      #####,   #    #        
            '#,     ,#'  ##    ##  '#,     ,#' ,#      #,         ##   #,  ,#        
             '#######'   ##     ##  '#######'  #'      '#     #####' # '####'        



                  #######################################################
                  #                        -***-                        #
                  #          Department of theory and spectroscopy      #
                  #    Directorship and core code : Frank Neese         #
                  #        Max Planck Institute fuer Kohlenforschung    #
                  #                Kaiser Wilhelm Platz 1               #
                  #                 D-45470 Muelheim/Ruhr               #
                  #                      Germany                        #
                  #                                                     #
                  #                  All rights reserved                #
                  #                        -***-                        #
                  #######################################################


                         Program Version 5.0.1 -  RELEASE  -


 With contributions from (in alphabetic order):
   Daniel Aravena         : Magnetic Suceptibility
   Michael Atanasov       : Ab Initio Ligand Field Theory (pilot matlab implementation)
   Alexander A. Auer      : GIAO ZORA, VPT2 properties, NMR spectrum
   Ute Becker             : Parallelization
   Giovanni Bistoni       : ED, misc. LED, open-shell LED, HFLD
   Martin Brehm           : Molecular dynamics
   Dmytro Bykov           : SCF Hessian
   Vijay G. Chilkuri      : MRCI spin determinant printing, contributions to CSF-ICE
   Dipayan Datta          : RHF DLPNO-CCSD density
   Achintya Kumar Dutta   : EOM-CC, STEOM-CC
   Dmitry Ganyushin       : Spin-Orbit,Spin-Spin,Magnetic field MRCI
   Miquel Garcia          : C-PCM and meta-GGA Hessian, CC/C-PCM, Gaussian charge scheme
   Yang Guo               : DLPNO-NEVPT2, F12-NEVPT2, CIM, IAO-localization
   Andreas Hansen         : Spin unrestricted coupled pair/coupled cluster methods
   Benjamin Helmich-Paris : MC-RPA, TRAH-SCF, COSX integrals
   Lee Huntington         : MR-EOM, pCC
   Robert Izsak           : Overlap fitted RIJCOSX, COSX-SCS-MP3, EOM
   Marcus Kettner         : VPT2
   Christian Kollmar      : KDIIS, OOCD, Brueckner-CCSD(T), CCSD density, CASPT2, CASPT2-K
   Simone Kossmann        : Meta GGA functionals, TD-DFT gradient, OOMP2, MP2 Hessian
   Martin Krupicka        : Initial AUTO-CI
   Lucas Lang             : DCDCAS
   Marvin Lechner         : AUTO-CI (C++ implementation), FIC-MRCC
   Dagmar Lenk            : GEPOL surface, SMD
   Dimitrios Liakos       : Extrapolation schemes; Compound Job, initial MDCI parallelization
   Dimitrios Manganas     : Further ROCIS development; embedding schemes
   Dimitrios Pantazis     : SARC Basis sets
   Anastasios Papadopoulos: AUTO-CI, single reference methods and gradients
   Taras Petrenko         : DFT Hessian,TD-DFT gradient, ASA, ECA, R-Raman, ABS, FL, XAS/XES, NRVS
   Peter Pinski           : DLPNO-MP2, DLPNO-MP2 Gradient
   Christoph Reimann      : Effective Core Potentials
   Marius Retegan         : Local ZFS, SOC
   Christoph Riplinger    : Optimizer, TS searches, QM/MM, DLPNO-CCSD(T), (RO)-DLPNO pert. Triples
   Tobias Risthaus        : Range-separated hybrids, TD-DFT gradient, RPA, STAB
   Michael Roemelt        : Original ROCIS implementation
   Masaaki Saitow         : Open-shell DLPNO-CCSD energy and density
   Barbara Sandhoefer     : DKH picture change effects
   Avijit Sen             : IP-ROCIS
   Kantharuban Sivalingam : CASSCF convergence, NEVPT2, FIC-MRCI
   Bernardo de Souza      : ESD, SOC TD-DFT
   Georgi Stoychev        : AutoAux, RI-MP2 NMR, DLPNO-MP2 response
   Willem Van den Heuvel  : Paramagnetic NMR
   Boris Wezisla          : Elementary symmetry handling
   Frank Wennmohs         : Technical directorship


 We gratefully acknowledge several colleagues who have allowed us to
 interface, adapt or use parts of their codes:
   Stefan Grimme, W. Hujo, H. Kruse, P. Pracht,  : VdW corrections, initial TS optimization,
                  C. Bannwarth, S. Ehlert          DFT functionals, gCP, sTDA/sTD-DF
   Ed Valeev, F. Pavosevic, A. Kumar             : LibInt (2-el integral package), F12 methods
   Garnet Chan, S. Sharma, J. Yang, R. Olivares  : DMRG
   Ulf Ekstrom                                   : XCFun DFT Library
   Mihaly Kallay                                 : mrcc  (arbitrary order and MRCC methods)
   Jiri Pittner, Ondrej Demel                    : Mk-CCSD
   Frank Weinhold                                : gennbo (NPA and NBO analysis)
   Christopher J. Cramer and Donald G. Truhlar   : smd solvation model
   Lars Goerigk                                  : TD-DFT with DH, B97 family of functionals
   V. Asgeirsson, H. Jonsson                     : NEB implementation
   FAccTs GmbH                                   : IRC, NEB, NEB-TS, DLPNO-Multilevel, CI-OPT
                                                   MM, QMMM, 2- and 3-layer-ONIOM, Crystal-QMMM,
                                                   LR-CPCM, SF, NACMEs, symmetry and pop. for TD-DFT,
                                                   nearIR, NL-DFT gradient (VV10), updates on ESD,
                                                   ML-optimized integration grids
   S Lehtola, MJT Oliveira, MAL Marques          : LibXC Library
   Liviu Ungur et al                             : ANISO software


 Your calculation uses the libint2 library for the computation of 2-el integrals
 For citations please refer to: http://libint.valeyev.net

 Your ORCA version has been built with support for libXC version: 5.1.0
 For citations please refer to: https://tddft.org/programs/libxc/

 This ORCA versions uses:
   CBLAS   interface :  Fast vector & matrix operations
   LAPACKE interface :  Fast linear algebra routines
   SCALAPACK package :  Parallel linear algebra routines
   Shared memory     :  Shared parallel matrices
   BLAS/LAPACK       :  OpenBLAS 0.3.15  USE64BITINT DYNAMIC_ARCH NO_AFFINITY SkylakeX SINGLE_THREADED
        Core in use  :  SkylakeX
   Copyright (c) 2011-2014, The OpenBLAS Project




################################################################################


                                COMPOUND JOB MainJOB 
Basename: ch3oh_lw1x-p34_Compound_0

################################################################################

================================================================================
                                       INPUT FILE
================================================================================
NAME = ch3oh_lw1x-p34_Compound_0.inp
|  1> %Maxcore 1000
|  2>  %Pal nprocs 5 End
|  3>  
|  4>  * xyz 0 1
|  5>  C       -0.046419    0.662963    0.000000 
|  6>  O       -0.046419   -0.756916    0.000000 
|  7>  H       -1.088130    0.979113    0.000000 
|  8>  H        0.864374   -1.062148    0.000000 
|  9>  H        0.436814    1.080293    0.889747 
| 10>  H        0.436814    1.080293   -0.889747 
| 11>  *
| 12>  
| 13> 
| 14>                          ****END OF INPUT****
================================================================================
================================================================================

----- Orbital basis set information -----
Your calculation utilizes the basis: def2-SVP
   F. Weigend and R. Ahlrichs, Phys. Chem. Chem. Phys. 7, 3297 (2005).



################################################################################


                                COMPOUND JOB  1 
Basename: ch3oh_lw1x-p34_Compound_1
NOTE: please remember that MaxCore and PAL settings will be ignored.

################################################################################

================================================================================
                                       INPUT FILE
================================================================================
NAME = ch3oh_lw1x-p34_Compound_1.inp
|  1>     ! DKH DefGrid3 RIJCOSX TightPNO DLPNO-MP2 MiniPrint NoPop
|  2>     %Basis
|  3>       Basis         "cc-pVTZ-DK"
|  4>       AuxJ          "AutoAux"
|  5>       AuxC          "AutoAux"
|  6>       CABS          "AutoAux"
|  7>       NewGTO     Ga "cc-pVTZ-DK" End
|  8>       NewAuxjGTO Ga "AutoAux" End
|  9>       NewAuxcGTO Ga "AutoAux" End
| 10>       NewCabsGTO Ga "AutoAux" End
| 11>       NewGTO     Ge "cc-pVTZ-DK" End
| 12>       NewAuxjGTO Ge "AutoAux" End
| 13>       NewAuxcGTO Ge "AutoAux" End
| 14>       NewCabsGTO Ge "AutoAux" End
| 15>       NewGTO     As "cc-pVTZ-DK" End
| 16>       NewAuxjGTO As "AutoAux" End
| 17>       NewAuxcGTO As "AutoAux" End
| 18>       NewCabsGTO As "AutoAux" End
| 19>       NewGTO     Se "cc-pVTZ-DK" End
| 20>       NewAuxjGTO Se "AutoAux" End
| 21>       NewAuxcGTO Se "AutoAux" End
| 22>       NewCabsGTO Se "AutoAux" End
| 23>       NewGTO     Br "cc-pVTZ-DK" End
| 24>       NewAuxjGTO Br "AutoAux" End
| 25>       NewAuxcGTO Br "AutoAux" End
| 26>       NewCabsGTO Br "AutoAux" End
| 27>       NewGTO     Kr "cc-pVTZ-DK" End
| 28>       NewAuxjGTO Kr "AutoAux" End
| 29>       NewAuxcGTO Kr "AutoAux" End
| 30>       NewCabsGTO Kr "AutoAux" End
| 31>       NewGTO     In "cc-pVTZ-DK" End
| 32>       NewAuxjGTO In "AutoAux" End
| 33>       NewAuxcGTO In "AutoAux" End
| 34>       NewCabsGTO In "AutoAux" End
| 35>       NewGTO     Sn "cc-pVTZ-DK" End
| 36>       NewAuxjGTO Sn "AutoAux" End
| 37>       NewAuxcGTO Sn "AutoAux" End
| 38>       NewCabsGTO Sn "AutoAux" End
| 39>       NewGTO     Sb "cc-pVTZ-DK" End
| 40>       NewAuxjGTO Sb "AutoAux" End
| 41>       NewAuxcGTO Sb "AutoAux" End
| 42>       NewCabsGTO Sb "AutoAux" End
| 43>       NewGTO     Te "cc-pVTZ-DK" End
| 44>       NewAuxjGTO Te "AutoAux" End
| 45>       NewAuxcGTO Te "AutoAux" End
| 46>       NewCabsGTO Te "AutoAux" End
| 47>       NewGTO     I  "cc-pVTZ-DK" End
| 48>       NewAuxjGTO I  "AutoAux" End
| 49>       NewAuxcGTO I  "AutoAux" End
| 50>       NewCabsGTO I  "AutoAux" End
| 51>       NewGTO     Xe "cc-pVTZ-DK" End
| 52>       NewAuxjGTO Xe "AutoAux" End
| 53>       NewAuxcGTO Xe "AutoAux" End
| 54>       NewCabsGTO Xe "AutoAux" End
| 55>     End
| 56> 
| 57>                          ****END OF INPUT****
================================================================================
Warning! AutoAux has not been tested for CABS - use at your own risk!
================================================================================

----- Orbital basis set information -----
Your calculation utilizes the basis: cc-pVTZ-DK 
    H-He, B-Ne : Obtained from the ccRepo (grant-hill.group.shef.ac.uk/ccrepo) Feb. 2017
                 W. A. de Jong, R. J. Harrison, D. A. Dixon, J. Chem. Phys. 114, 48 (2001)
  Li-Be, Na-Mg : Obtained from the Peterson Research Group Website (tyr0.chem.wsu.edu/~kipeters) Feb. 2017
                 B. P. Prascher, D. E. Woon, K. A. Peterson, T. H. Dunning, Jr., A. K. Wilson, Theor. Chem. Acc. 128, 69 (2011)
  Al-Ar, Ga-Kr : Obtained from the EMSL Basis Set Exchange (bse.pnl.gov) Feb. 2017
                 W. A. de Jong, R. J. Harrison, D. A. Dixon, J. Chem. Phys. 114, 48 (2001)
         Sc-Zn : Obtained from the ccRepo (grant-hill.group.shef.ac.uk/ccrepo) Feb. 2017
                 N. B. Balabanov, K. A. Peterson, J. Chem. Phys. 123, 064107 (2005)
                 N. B. Balabanov, K. A. Peterson, J. Chem. Phys. 125, 074110 (2006)
          Y-Pd : Obtained from the ccRepo (grant-hill.group.shef.ac.uk/ccrepo) Feb. 2017
                 K. A. Peterson, D. Figgen, M. Dolg, H. Stoll, J. Chem. Phys. 126, 124101 (2007)
  Ag-Cd, Au-Hg : Obtained from the ccRepo (grant-hill.group.shef.ac.uk/ccrepo) Feb. 2017
                 K. A. Peterson, C. Puzzarini, Theor. Chem. Acc. 114, 283 (2005)
  In-Xe, Tl-Rn : Obtained from the ccRepo (grant-hill.group.shef.ac.uk/ccrepo) Feb. 2017
                 D. H. Bross, K. A. Peterson, Theor. Chem. Acc. 133, 1434 (2014)
         Hf-Pt : Obtained from the ccRepo (grant-hill.group.shef.ac.uk/ccrepo) Feb. 2017
                 D. Figgen, K. A. Peterson, M. Dolg, H. Stoll, J. Chem. Phys. 130, 164108 (2009)

The basis set includes element-specific modifications.

----- AuxJ basis set information -----
Your calculation utilizes the AutoAux generation procedure.
  G. L. Stoychev, A. A. Auer, F. Neese, J. Chem. Theory Comput. 13, 554 (2017)

The basis set includes element-specific modifications.

----- AuxC basis set information -----
Your calculation utilizes the AutoAux generation procedure.
  G. L. Stoychev, A. A. Auer, F. Neese, J. Chem. Theory Comput. 13, 554 (2017)

The basis set includes element-specific modifications.

----- CABS information -----
Your calculation utilizes the AutoAux generation procedure.
  G. L. Stoychev, A. A. Auer, F. Neese, J. Chem. Theory Comput. 13, 554 (2017)

The basis set includes element-specific modifications.


                    <<< The CABS basis set will be decontracted >>>

================================================================================
                                        WARNINGS
                       Please study these warnings very carefully!
================================================================================


WARNING: No MP2 level density has been requested!
         To caclulate MP2 level properties use
         %mp2 Density relaxed end
         or
         %mp2 Density unrelaxed end

WARNING: Post HF methods need fully converged wavefunctions
  ===> : Setting SCFConvForced true
         You can overwrite this default with %scf ConvForced false 


INFO   : the flag for use of the SHARK integral package has been found!


                       ****************************
                       * Single Point Calculation *
                       ****************************

---------------------------------
CARTESIAN COORDINATES (ANGSTROEM)
---------------------------------
  C     -0.046419    0.662963    0.000000
  O     -0.046419   -0.756916    0.000000
  H     -1.088130    0.979113    0.000000
  H      0.864374   -1.062148    0.000000
  H      0.436814    1.080293    0.889747
  H      0.436814    1.080293   -0.889747

----------------------------
CARTESIAN COORDINATES (A.U.)
----------------------------
  NO LB      ZA    FRAG     MASS         X           Y           Z
   0 C     6.0000    0    12.011   -0.087719    1.252819    0.000000
   1 O     8.0000    0    15.999   -0.087719   -1.430364    0.000000
   2 H     1.0000    0     1.008   -2.056268    1.850255    0.000000
   3 H     1.0000    0     1.008    1.633430   -2.007169    0.000000
   4 H     1.0000    0     1.008    0.825459    2.041458    1.681378
   5 H     1.0000    0     1.008    0.825459    2.041458   -1.681378



           ************************************************************
           *        Program running with 5 parallel MPI-processes     *
           *              working on a common directory               *
           ************************************************************
------------------------------------------------------------------------------
                   ___                                                        
                  /   \      - P O W E R E D   B Y -                         
                 /     \                                                     
                 |  |  |   _    _      __       _____    __    __             
                 |  |  |  | |  | |    /  \     |  _  \  |  |  /  |          
                  \  \/   | |  | |   /    \    | | | |  |  | /  /          
                 / \  \   | |__| |  /  /\  \   | |_| |  |  |/  /          
                |  |  |   |  __  | /  /__\  \  |    /   |      \           
                |  |  |   | |  | | |   __   |  |    \   |  |\   \          
                \     /   | |  | | |  |  |  |  | |\  \  |  | \   \       
                 \___/    |_|  |_| |__|  |__|  |_| \__\ |__|  \__/        
                                                                              
                      - O R C A' S   B I G   F R I E N D -                    
                                      &                                       
                       - I N T E G R A L  F E E D E R -                       
                                                                              
 v1 FN, 2020, v2 2021                                                         
------------------------------------------------------------------------------


Reading SHARK input file ch3oh_lw1x-p34_Compound_1.SHARKINP.tmp ... ok
----------------------
SHARK INTEGRAL PACKAGE
----------------------

Number of atoms                             ...      6
Number of basis functions                   ...    116
Number of shells                            ...     44
Maximum angular momentum                    ...      3
Integral batch strategy                     ... SHARK/LIBINT Hybrid
RI-J (if used) integral strategy            ... SPLIT-RIJ (Revised 2003 algorithm where possible)
Printlevel                                  ...      1
Contraction scheme used                     ... SEGMENTED contraction
Coulomb Range Separation                    ... NOT USED
Exchange Range Separation                   ... NOT USED
Finite Nucleus Model                        ... NOT USED
Auxiliary Coulomb fitting basis             ... AVAILABLE
   # of basis functions in Aux-J            ...    526
   # of shells in Aux-J                     ...    166
   Maximum angular momentum in Aux-J        ...      4
Auxiliary J/K fitting basis                 ... NOT available
Auxiliary Correlation fitting basis         ... AVAILABLE
   # of basis functions in Aux-C            ...    526
   # of shells in Aux-C                     ...    166
   Maximum angular momentum in Aux-C        ...      4
Auxiliary 'external' fitting basis          ... NOT available
Integral threshold                          ...     1.000000e-10
Primitive cut-off                           ...     1.000000e-11
Primitive pair pre-selection threshold      ...     1.000000e-11

Calculating pre-screening integrals         ... done (  0.1 sec) Dimension = 44
Organizing shell pair data                  ... done (  0.0 sec)
Shell pair information
Total number of shell pairs                 ...       990
Shell pairs after pre-screening             ...       990
Total number of primitive shell pairs       ...      3700
Primitive shell pairs kept                  ...      3269
          la=0 lb=0:    210 shell pairs
          la=1 lb=0:    280 shell pairs
          la=1 lb=1:    105 shell pairs
          la=2 lb=0:    160 shell pairs
          la=2 lb=1:    112 shell pairs
          la=2 lb=2:     36 shell pairs
          la=3 lb=0:     40 shell pairs
          la=3 lb=1:     28 shell pairs
          la=3 lb=2:     16 shell pairs
          la=3 lb=3:      3 shell pairs

Calculating one electron integrals          ... done (  0.0 sec)
Calculating RI/J V-Matrix + Cholesky decomp.... done (  0.1 sec)
Calculating RI/C V-Matrix + Cholesky decomp.... done (  0.1 sec)
Calculating Nuclear repulsion               ... done (  0.0 sec) ENN=     40.298007629429 Eh

SHARK setup successfully completed in   0.4 seconds

Maximum memory used throughout the entire GTOINT-calculation: 17.6 MB


           ************************************************************
           *        Program running with 5 parallel MPI-processes     *
           *              working on a common directory               *
           ************************************************************
------------------------------------------------------------------------------
                          ORCA RELATIVISTIC HAMILTONIAN
------------------------------------------------------------------------------

Relativistic Method            ... DKH
Order of DKH treatment         ...   2
Treatment of potential         ... V(e,N)
Eps parameter for DKH          ...   0.00000000010000
Nucleus model                  ... Point Nucleus
Speed of light used            ... 137.03598950000000


            ************************************************
            *        DOUGLAS-KROLL-HESS HAMILTONIAN        *
            *   Programmed by FN according to literature   *
            *        procedures. Special thanks to         *
            *       B.A. Hess, M. Reiher and A. Wolf       *
            *     University Erlangen-Nuernberg/Bonn       *
            ************************************************

Uncontracting the basis (second version)       ... done
Basis set overlap                              ... done
Number of contracted basis functions           ...  116
Number of uncontracted basis functions         ...  148
Initializing the DKH file                      ... done
Calculating the relativistic integrals         ... done
Storing DKH matrices                           ... done
Code used for DKH trafo                        ... ORCA
Computing the DKH transformation               ... done
Storing the transformation variables           ... done
Transforming V and pVp to p**2 space           ... done
First transformation of V and pVp              ... done
Second transformation of Veff                  ... done
Adding kinetic energy                          ... done
Back transformation of Veff to r-space         ... done
Recovering DKH matrices                        ... done
Recontracting the H-matrix (second version)    ... done
Computing the DKH correction to the H-matrix   ... done
Reading the original H-matrix                  ... done
Adding DKH correction to the H-matrix          ... done
Storing the new modified H-matrix              ... done

Maximum memory used throughout the entire REL-calculation: 46.3 MB


           ************************************************************
           *        Program running with 5 parallel MPI-processes     *
           *              working on a common directory               *
           ************************************************************

Diagonalization of the overlap matrix:
Smallest eigenvalue                        ... 1.853e-03
Time for diagonalization                   ...    0.016 sec
Threshold for overlap eigenvalues          ... 1.000e-08
Number of eigenvalues below threshold      ... 0
Time for construction of square roots      ...    0.019 sec
Total time needed                          ...    0.035 sec

Time for model grid setup =    0.052 sec

Loading DKH relativistic densities                 ... done
Calculating cut-offs                               ... done
Initializing the effective Hamiltonian             ... done
Setting up the integral package (SHARK)            ... done
Starting the Coulomb interaction                   ... done (   0.0 sec)
Reading the grid                                   ... done
Mapping shells                                     ... done
Starting the XC term evaluation                    ... done (   0.0 sec)
Transforming the Hamiltonian                       ... done (   0.0 sec)
Diagonalizing the Hamiltonian                      ... done (   0.0 sec)
Back transforming the eigenvectors                 ... done (   0.0 sec)
Now organizing SCF variables                       ... done
--------------------
COSX GRID GENERATION
--------------------

GRIDX 1
-------
General Integration Accuracy     IntAcc      ... 4.020
Radial Grid Type                 RadialGrid  ... OptM3 with GC (2021)
Angular Grid (max. ang.)         AngularGrid ... 2 (Lebedev-110)
Angular grid pruning method      GridPruning ... 4 (adaptive)
Weight generation scheme         WeightScheme... Becke
Basis function cutoff            BFCut       ... 1.0000e-10
Integration weight cutoff        WCut        ... 1.0000e-14
Angular grids for H and He will be reduced by one unit
Partially contracted basis set               ... on
Rotationally invariant grid construction     ... off

Total number of grid points                  ...     6919
Total number of batches                      ...      112
Average number of points per batch           ...       61
Average number of grid points per atom       ...     1153
UseSFitting                                  ... on

GRIDX 2
-------
General Integration Accuracy     IntAcc      ... 4.338
Radial Grid Type                 RadialGrid  ... OptM3 with GC (2021)
Angular Grid (max. ang.)         AngularGrid ... 3 (Lebedev-194)
Angular grid pruning method      GridPruning ... 4 (adaptive)
Weight generation scheme         WeightScheme... Becke
Basis function cutoff            BFCut       ... 1.0000e-10
Integration weight cutoff        WCut        ... 1.0000e-14
Angular grids for H and He will be reduced by one unit
Partially contracted basis set               ... on
Rotationally invariant grid construction     ... off

Total number of grid points                  ...    15207
Total number of batches                      ...      241
Average number of points per batch           ...       63
Average number of grid points per atom       ...     2534
UseSFitting                                  ... on

GRIDX 3
-------
General Integration Accuracy     IntAcc      ... 4.871
Radial Grid Type                 RadialGrid  ... OptM3 with GC (2021)
Angular Grid (max. ang.)         AngularGrid ... 4 (Lebedev-302)
Angular grid pruning method      GridPruning ... 4 (adaptive)
Weight generation scheme         WeightScheme... Becke
Basis function cutoff            BFCut       ... 1.0000e-10
Integration weight cutoff        WCut        ... 1.0000e-14
Angular grids for H and He will be reduced by one unit
Partially contracted basis set               ... on
Rotationally invariant grid construction     ... off

Total number of grid points                  ...    30645
Total number of batches                      ...      481
Average number of points per batch           ...       63
Average number of grid points per atom       ...     5108
UseSFitting                                  ... on

Time for X-Grid setup             =    0.334 sec

 re-compute Schwartz prescreening matrix in partically contracted basis (1) ...done (   0.093 sec)
--------------
SCF ITERATIONS
--------------
ITER       Energy         Delta-E        Max-DP      RMS-DP      [F,P]     Damp
               ***  Starting incremental Fock matrix formation  ***
  0   -115.0324519880   0.000000000000 0.02984237  0.00096783  0.3137119 0.7000
  1   -115.0769831351  -0.044531147151 0.02077820  0.00072541  0.1894995 0.7000
                               ***Turning on DIIS***
  2   -115.1028252851  -0.025842149997 0.01462189  0.00044996  0.1103521 0.7000
  3   -115.3821268325  -0.279301547394 0.03703340  0.00084336  0.0830805 0.0000
  4   -115.1405724071   0.241554425427 0.00497870  0.00014487  0.0061074 0.0000
                      *** Initiating the SOSCF procedure ***
                           *** Shutting down DIIS ***
                      *** Re-Reading the Fockian *** 
                      *** Removing any level shift *** 
ITER      Energy       Delta-E        Grad      Rot      Max-DP    RMS-DP
  5   -115.15757979  -0.0170073846  0.001116  0.001116  0.001623  0.000066
               *** Restarting incremental Fock matrix formation ***
  6   -115.15543290   0.0021468923  0.000402  0.000361  0.000770  0.000032
  7   -115.15543752  -0.0000046222  0.000167  0.000246  0.000412  0.000021
  8   -115.15543832  -0.0000007985  0.000065  0.000055  0.000078  0.000004
                 **** Energy Check signals convergence ****
              ***Rediagonalizing the Fockian in SOSCF/NRSCF***

               *****************************************************
               *                     SUCCESS                       *
               *           SCF CONVERGED AFTER   9 CYCLES          *
               *****************************************************

Old exchange energy                            =    -14.873927301 Eh
New exchange energy                            =    -14.873937730 Eh
Exchange energy change after final integration =     -0.000010429 Eh
Total energy after final integration           =   -115.155448817 Eh
Final COS-X integration done in                =     0.569 sec
Total Energy       :         -115.15544882 Eh           -3133.53907 eV
  Last Energy change         ...   -6.7922e-08  Tolerance :   1.0000e-06
  Last MAX-Density change    ...    2.2204e-15  Tolerance :   1.0000e-05
             **** THE GBW FILE WAS UPDATED (ch3oh_lw1x-p34_Compound_1.gbw) ****
             **** DENSITY ch3oh_lw1x-p34_Compound_1.scfp WAS UPDATED ****
             **** ENERGY FILE WAS UPDATED (ch3oh_lw1x-p34_Compound_1.en.tmp) ****
             **** THE GBW FILE WAS UPDATED (ch3oh_lw1x-p34_Compound_1.gbw) ****
             **** DENSITY ch3oh_lw1x-p34_Compound_1.scfp WAS UPDATED ****
----------------
ORBITAL ENERGIES
----------------

  NO   OCC          E(Eh)            E(eV) 
   0   2.0000     -20.567540      -559.6712 
   1   2.0000     -11.274017      -306.7816 
   2   2.0000      -1.354885       -36.8683 
   3   2.0000      -0.923728       -25.1359 
   4   2.0000      -0.687582       -18.7101 
   5   2.0000      -0.617023       -16.7900 
   6   2.0000      -0.590499       -16.0683 
   7   2.0000      -0.500707       -13.6249 
   8   2.0000      -0.448607       -12.2072 
   9   0.0000       0.138579         3.7709 
  10   0.0000       0.178001         4.8436 
  11   0.0000       0.220485         5.9997 
  12   0.0000       0.223987         6.0950 
  13   0.0000       0.290632         7.9085 
  14   0.0000       0.386483        10.5167 
  15   0.0000       0.404896        11.0178 
  16   0.0000       0.546027        14.8582 
  17   0.0000       0.580816        15.8048 
  18   0.0000       0.622845        16.9485 
  19   0.0000       0.625487        17.0204 
  20   0.0000       0.637792        17.3552 
  21   0.0000       0.690795        18.7975 
  22   0.0000       0.702853        19.1256 
  23   0.0000       0.721869        19.6430 
  24   0.0000       0.832022        22.6405 
  25   0.0000       0.868023        23.6201 
  26   0.0000       0.869610        23.6633 
  27   0.0000       0.931032        25.3347 
  28   0.0000       1.068243        29.0684 
  29   0.0000       1.098811        29.9002 
  30   0.0000       1.177792        32.0493 
  31   0.0000       1.189534        32.3689 
  32   0.0000       1.261886        34.3377 
  33   0.0000       1.268922        34.5291 
  34   0.0000       1.281236        34.8642 
  35   0.0000       1.365343        37.1529 
  36   0.0000       1.444214        39.2991 
  37   0.0000       1.489585        40.5337 
  38   0.0000       1.522074        41.4177 
  39   0.0000       1.543607        42.0037 
  40   0.0000       1.582061        43.0501 
  41   0.0000       1.620033        44.0833 
  42   0.0000       1.771923        48.2165 
  43   0.0000       2.091204        56.9045 
  44   0.0000       2.179257        59.3006 
  45   0.0000       2.198737        59.8307 
  46   0.0000       2.303218        62.6737 
  47   0.0000       2.322321        63.1936 
  48   0.0000       2.490603        67.7728 
  49   0.0000       2.508174        68.2509 
  50   0.0000       2.576274        70.1040 
  51   0.0000       2.806764        76.3759 
  52   0.0000       2.945986        80.1643 
  53   0.0000       3.055554        83.1459 
  54   0.0000       3.108691        84.5918 
  55   0.0000       3.116196        84.7960 
  56   0.0000       3.146856        85.6303 
  57   0.0000       3.228240        87.8449 
  58   0.0000       3.241555        88.2072 
  59   0.0000       3.311345        90.1063 
  60   0.0000       3.314258        90.1856 
  61   0.0000       3.342967        90.9668 
  62   0.0000       3.385171        92.1152 
  63   0.0000       3.493874        95.0731 
  64   0.0000       3.613363        98.3246 
  65   0.0000       3.633934        98.8844 
  66   0.0000       3.697553       100.6155 
  67   0.0000       3.704504       100.8047 
  68   0.0000       3.745306       101.9149 
  69   0.0000       3.754527       102.1659 
  70   0.0000       3.808268       103.6282 
  71   0.0000       3.833923       104.3264 
  72   0.0000       3.907479       106.3279 
  73   0.0000       4.005672       108.9999 
  74   0.0000       4.023676       109.4898 
  75   0.0000       4.116916       112.0270 
  76   0.0000       4.154870       113.0598 
  77   0.0000       4.168473       113.4299 
  78   0.0000       4.243563       115.4732 
  79   0.0000       4.249274       115.6286 
  80   0.0000       4.287811       116.6773 
  81   0.0000       4.397100       119.6512 
  82   0.0000       4.437988       120.7638 
  83   0.0000       4.466500       121.5397 
  84   0.0000       4.552641       123.8837 
  85   0.0000       4.575743       124.5123 
  86   0.0000       4.708499       128.1248 
  87   0.0000       4.778087       130.0184 
  88   0.0000       4.985077       135.6509 
  89   0.0000       5.026150       136.7685 
  90   0.0000       5.048775       137.3842 
  91   0.0000       5.194569       141.3514 
  92   0.0000       5.261708       143.1784 
  93   0.0000       5.308436       144.4499 
  94   0.0000       5.360610       145.8696 
  95   0.0000       5.428313       147.7119 
  96   0.0000       5.537044       150.6706 
  97   0.0000       5.540240       150.7576 
  98   0.0000       5.556446       151.1986 
  99   0.0000       5.788127       157.5029 
 100   0.0000       5.936834       161.5495 
 101   0.0000       6.187604       168.3733 
 102   0.0000       6.194028       168.5481 
 103   0.0000       6.240978       169.8257 
 104   0.0000       6.430284       174.9769 
 105   0.0000       6.642582       180.7539 
 106   0.0000       6.992955       190.2880 
 107   0.0000       7.120439       193.7570 
 108   0.0000       7.178516       195.3373 
 109   0.0000       7.227366       196.6666 
 110   0.0000       7.351846       200.0539 
 111   0.0000       7.413250       201.7248 
 112   0.0000       7.596224       206.7038 
 113   0.0000       7.909074       215.2168 
 114   0.0000      12.089575       328.9741 
 115   0.0000      13.664471       371.8292 
Total SCF time: 0 days 0 hours 0 min 4 sec 

Maximum memory used throughout the entire SCF-calculation: 61.9 MB


           ************************************************************
           *        Program running with 5 parallel MPI-processes     *
           *              working on a common directory               *
           ************************************************************

------------------------------------------------------------------------------
                                ORCA  MP2 
------------------------------------------------------------------------------

Freezing NCore=4 chemical core electrons
Initializing SHARK ... done


------------------------------------------------------------------------------
                           ORCA ORBITAL LOCALIZATION
------------------------------------------------------------------------------

Input orbitals are from                  ... ch3oh_lw1x-p34_Compound_1.gbw
Output orbitals are to                   ... ch3oh_lw1x-p34_Compound_1.loc
Max. number of iterations                ... 128
Localizations seeded randomly            ... off
Convergence tolerance                    ... 1.000e-06
Treshold for strong local MOs            ... 9.500e-01
Treshold for bond MOs                    ... 8.500e-01
Operator                                 ... 0
Orbital range for localization           ... 2 to 8
Localization criterion                   ... FOSTER-BOYS (AUGMENTED HESSIAN)
Doing the dipole integrals     ... o.k.
Initial value of the localization sum :    14.488743
ITERATION   0 : L=   23.6716719939 DL=  9.18e+00 (AVERGE_DL)=    0.6612732776 
ITERATION   1 : L=   24.0159053540 DL=  3.44e-01 (AVERGE_DL)=    0.1280314991 
ITERATION   2 : L=   24.0211624362 DL=  5.26e-03 (AVERGE_DL)=    0.0158220494 
ITERATION   3 : L=   24.0216418636 DL=  4.79e-04 (AVERGE_DL)=    0.0047780619 
ITERATION   4 : L=   24.0216947765 DL=  5.29e-05 (AVERGE_DL)=    0.0015873448 
ITERATION   5 : L=   24.0216999478 DL=  5.17e-06 (AVERGE_DL)=    0.0004962344 
ITERATION   6 : L=   24.0217004325 DL=  4.85e-07 (AVERGE_DL)=    0.0001519292 
LOCALIZATION SUM CONVERGED

------------------------------------------------------
AUGMENTED HESSIAN OPTIMIZATION OF FOSTER-BOYS ORBITALS
------------------------------------------------------

Spin operator:           0
Orbital window:          2 to 8
Number of iterations:    128
Gradient tolerance:      1.000e-06
Number of pairs:         21
Davidson threshold:      2000
Diagonalization method:  LAPACK
Iter:    0   L: 24.0217004325   Grad. norm: 4.187884e-04
   *** Likely close to a maximum now. ***
       Augmented Hessian eigenvalues:  9.53e-08 -1.35e+00 -3.51e+00 -5.13e+00 ... 
Iter:    1   L: 24.0217004802   Grad. norm: 4.847068e-08
LOCALIZATION HAS CONVERGED.

Eigenvalues of the Hessian:
  0 -1.349e+00
  1 -3.510e+00
  2 -5.126e+00
  3 -5.525e+00
  4 -7.494e+00
  5 -1.029e+01
  6 -1.740e+01
  7 -2.101e+01
  8 -2.155e+01
  9 -2.426e+01
    ...


------------------------------------------------------------------------------- 
                    LOCALIZED MOLECULAR ORBITAL COMPOSITIONS                   
------------------------------------------------------------------------------- 

The Mulliken populations for each LMO on each atom are computed
The LMO`s will be ordered according to atom index and type
  (A) Strongly localized MO`s have populations of >=0.950 on one atom
  (B) Two center bond orbitals have populations of >=0.850 on two atoms
  (C) Other MO`s are considered to be `delocalized`

FOUND  -   2 strongly local MO`s
       -   5 two center bond MO`s
       -   0 significantly delocalized MO`s

Rather strongly localized orbitals:
MO   3:   1O  -   0.985334
MO   2:   1O  -   0.985334
Bond-like localized orbitals:
MO   8:   5H  -   0.501444  and   0C  -   0.534955
MO   7:   4H  -   0.501444  and   0C  -   0.534955
MO   6:   3H  -   0.390693  and   1O  -   0.616437
MO   5:   2H  -   0.476974  and   0C  -   0.548593
MO   4:   1O  -   0.655556  and   0C  -   0.355460
Localized MO's were stored in: ch3oh_lw1x-p34_Compound_1.loc



Calculating differential overlap integrals ... ok
Threshold for domain construction in prescreening: TCutDOPre = 3.0e-02

--------------------------
ELECTRON PAIR PRESCREENING
--------------------------

Dipole-based pair screening          .... used

   TCutDOij = 1.000000e-05
   TCutPre  = 1.000000e-06
   .... Finished loop over pairs
Total time spent in the prescreening                  ...     0.001 sec
sum of pair energies estimated for screened out pairs ...       0.000000000000 Eh

---------------------------
MAP CONSTRUCTION THRESHOLDS
---------------------------
    TCutMKN     ...     1.0e-03
    TCutDO      ...     5.0e-03
    TCutC(MO)   ...     1.0e-03
    TCutC(PAO)  ...     1.0e-03

--------------------------------
LOCAL RI TRANSFORMATION (IAVPAO)
--------------------------------

Orbital window:       2 to 8
Number of PAOs:     116
Basis functions:    116 (44 shells)
Aux. functions:     526 (166 shells)
Use SHARK:           on

Processing maps (0.0 sec)
Average map sizes:
   Aux shells -> MOs               7.0
   Aux shells -> PAOs            116.0
   MOs        -> AO shells        44.0
   PAOs       -> AO shells        44.0

Calculating integrals (0.1 sec, 3.265 MB)
Sorting integrals (0.0 sec, 3.259 MB)
Total time for the integral transformation: 0.1 sec

----------------------------
Local MP2 Energy Calculation
----------------------------
Number of orbital pairs included:     28
Truncation parameters:
    PAOOverlapThresh    =        1.000e-08
    TCutPNO             =        1.000e-09

Spin component scaling                      .... not used
MP2 energy scaling factor                   .... 1.000

Formation of semicanonical amplitudes.
 10% done.
 20% done.
 30% done.
 40% done.
 50% done.
 60% done.
 70% done.
 80% done.
 90% done.
100% done.

Finished the LMP2 guess in 0.1 sec.

Average number of PAOs per pair        116.0
Average number of nrPAOs per pair      107.0
Average number of PNOs per pair         90.5
Average number of AUX  per pair        511.1

Semicanonical MP2 energy:                   -0.416509852490 Eh
Semicanonical MP2 energy in PNO basis:      -0.416508723736 Eh

Initial amplitudes guess done. Entering DLPNO-MP2 iteration loop:
   Max. no of iterations          ...  100
   Energy convergence tolerance   ...    1.0e-06 Eh
   Residual convergence tolerance ...    5.0e-06
   Fock matrix cutoff             ...    1.0e-05 Eh
   Max # vectors in DIIS          ...  7
   Start iteration of DIIS        ...  0
   Levelshift                     ...  2.000e-01 Eh
   Damping before turning on DIIS ...  5.000e-01
   Damping after turning on DIIS  ...  0.000e+00

                           *** Turning on DIIS ***
Iter=   0:  ECORR= -0.423869898276  DE=   7.4e-03 RMAX=   6.4e-03
Iter=   1:  ECORR= -0.427810224462  DE=   3.9e-03 RMAX=   3.3e-03
Iter=   2:  ECORR= -0.428399171107  DE=   5.9e-04 RMAX=   4.9e-04
Iter=   3:  ECORR= -0.428465941716  DE=   6.7e-05 RMAX=   1.7e-04
Iter=   4:  ECORR= -0.428470199604  DE=   4.3e-06 RMAX=   2.5e-05
Iter=   5:  ECORR= -0.428469866375  DE=   3.3e-07 RMAX=   8.6e-06
Iter=   6:  ECORR= -0.428469782955  DE=   8.3e-08 RMAX=   9.3e-07 => CONVERGED

Finished the DLPNO-MP2 iterations in 1.5 sec.

LMP2 correlation energy (all non-screened pairs)      ...     -0.428469782955 Eh
Semicanonical PNO correction to energy                ...     -0.000001128754 Eh
Sum of pair energies estimated for screened out pairs ...      0.000000000000 Eh
                                                         -----------------------
Total:                                                ...     -0.428470911709 Eh

------------------------------------------------------
 DLPNO-MP2 CORRELATION ENERGY:      -0.428470911709 Eh
------------------------------------------------------

TIMINGS FOR DLPNO-MP2:
Localization                             ...        0.205 sec
Differential overlap integrals           ...        0.765 sec
Prescreening                             ...        0.135 sec
Map setup                                ...        0.002 sec
(ia|v) trafo                             ...        0.137 sec
Semicanonical amplitudes                 ...        0.105 sec
PNO construction                         ...        0.022 sec
DLPNO-MP2 iterations                     ...        1.521 sec
                                             ----------------
Total time                                          3.314 sec


---------------------------------------
MP2 TOTAL ENERGY:     -115.583919728 Eh
---------------------------------------

Maximum memory used throughout the entire MP2-calculation: 108.3 MB

-------------------------   --------------------
FINAL SINGLE POINT ENERGY      -115.583919728468
-------------------------   --------------------


                            ***************************************
                            *     ORCA property calculations      *
                            ***************************************


  WARNING: The energy has been calculated at the MP2 level but the densities
           used in the property calculations are still SCF densities
           MP2 response densities have not been calculated 
           use %mp2 Density relaxed end
           or  %mp2 Density unrelaxed end

                                    ---------------------
                                    Active property flags
                                    ---------------------
   (+) Dipole Moment


------------------------------------------------------------------------------
                       ORCA ELECTRIC PROPERTIES CALCULATION
------------------------------------------------------------------------------

Dipole Moment Calculation                       ... on
Quadrupole Moment Calculation                   ... off
Polarizability Calculation                      ... off
GBWName                                         ... ch3oh_lw1x-p34_Compound_1.gbw
Electron density                                ... ch3oh_lw1x-p34_Compound_1.scfp
The origin for moment calculation is the CENTER OF MASS  = (-0.038047, -0.121072  0.000000)

-------------
DIPOLE MOMENT
-------------
                                X             Y             Z
Electronic contribution:     -0.12049      -1.77287      -0.00000
Nuclear contribution   :      0.68486       2.17929       0.00000
                        -----------------------------------------
Total Dipole Moment    :      0.56437       0.40642      -0.00000
                        -----------------------------------------
Magnitude (a.u.)       :      0.69548
Magnitude (Debye)      :      1.76776



--------------------
Rotational spectrum 
--------------------
 
Rotational constants in cm-1:     4.294188     0.825753     0.797103 
Rotational constants in MHz : 128736.528375 24755.456282 23896.559985 

 Dipole components along the rotational axes: 
x,y,z [a.u.] :    -0.375072    -0.585668    -0.000000 
x,y,z [Debye]:    -0.953358    -1.488650    -0.000000 

 

Timings for individual modules:

Sum of individual times         ...       14.238 sec (=   0.237 min)
GTO integral calculation        ...        2.281 sec (=   0.038 min)  16.0 %
Relativistic integrals          ...        2.112 sec (=   0.035 min)  14.8 %
SCF iterations                  ...        6.004 sec (=   0.100 min)  42.2 %
MP2 module                      ...        3.841 sec (=   0.064 min)  27.0 %


################################################################################


                                COMPOUND JOB  2 
Basename: ch3oh_lw1x-p34_Compound_2
NOTE: please remember that MaxCore and PAL settings will be ignored.

################################################################################

================================================================================
                                       INPUT FILE
================================================================================
NAME = ch3oh_lw1x-p34_Compound_2.inp
|  1>     ! DefGrid3 RIJCOSX TightPNO DLPNO-MP2 MiniPrint NoPop
|  2>     %Basis
|  3>       Basis         "cc-pVTZ"
|  4>       AuxJ          "AutoAux"
|  5>       AuxC          "AutoAux"
|  6>       CABS          "AutoAux"
|  7>       NewECP     Ga "SK-MCDHF-RSC" End
|  8>       NewGTO     Ga "cc-pVTZ-PP"   End
|  9>       NewAuxjGTO Ga "AutoAux" End
| 10>       NewAuxcGTO Ga "AutoAux" End
| 11>       NewCabsGTO Ga "AutoAux" End
| 12>       NewECP     Ge "SK-MCDHF-RSC" End
| 13>       NewGTO     Ge "cc-pVTZ-PP"   End
| 14>       NewAuxjGTO Ge "AutoAux" End
| 15>       NewAuxcGTO Ge "AutoAux" End
| 16>       NewCabsGTO Ge "AutoAux" End
| 17>       NewECP     As "SK-MCDHF-RSC" End
| 18>       NewGTO     As "cc-pVTZ-PP"   End
| 19>       NewAuxjGTO As "AutoAux" End
| 20>       NewAuxcGTO As "AutoAux" End
| 21>       NewCabsGTO As "AutoAux" End
| 22>       NewECP     Se "SK-MCDHF-RSC" End
| 23>       NewGTO     Se "cc-pVTZ-PP"   End
| 24>       NewAuxjGTO Se "AutoAux" End
| 25>       NewAuxcGTO Se "AutoAux" End
| 26>       NewCabsGTO Se "AutoAux" End
| 27>       NewECP     Br "SK-MCDHF-RSC" End
| 28>       NewGTO     Br "cc-pVTZ-PP"   End
| 29>       NewAuxjGTO Br "AutoAux" End
| 30>       NewAuxcGTO Br "AutoAux" End
| 31>       NewCabsGTO Br "AutoAux" End
| 32>       NewECP     Kr "SK-MCDHF-RSC" End
| 33>       NewGTO     Kr "cc-pVTZ-PP"   End
| 34>       NewAuxjGTO Kr "AutoAux" End
| 35>       NewAuxcGTO Kr "AutoAux" End
| 36>       NewCabsGTO Kr "AutoAux" End
| 37>       NewECP     In "SK-MCDHF-RSC" End
| 38>       NewGTO     In "cc-pVTZ-PP"   End
| 39>       NewAuxjGTO In "AutoAux" End
| 40>       NewAuxcGTO In "AutoAux" End
| 41>       NewCabsGTO In "AutoAux" End
| 42>       NewECP     Sn "SK-MCDHF-RSC" End
| 43>       NewGTO     Sn "cc-pVTZ-PP"   End
| 44>       NewAuxjGTO Sn "AutoAux" End
| 45>       NewAuxcGTO Sn "AutoAux" End
| 46>       NewCabsGTO Sn "AutoAux" End
| 47>       NewECP     Sb "SK-MCDHF-RSC" End
| 48>       NewGTO     Sb "cc-pVTZ-PP"   End
| 49>       NewAuxjGTO Sb "AutoAux" End
| 50>       NewAuxcGTO Sb "AutoAux" End
| 51>       NewCabsGTO Sb "AutoAux" End
| 52>       NewECP     Te "SK-MCDHF-RSC" End
| 53>       NewGTO     Te "cc-pVTZ-PP"   End
| 54>       NewAuxjGTO Te "AutoAux" End
| 55>       NewAuxcGTO Te "AutoAux" End
| 56>       NewCabsGTO Te "AutoAux" End
| 57>       NewECP     I  "SK-MCDHF-RSC" End
| 58>       NewGTO     I  "cc-pVTZ-PP"   End
| 59>       NewAuxjGTO I  "AutoAux" End
| 60>       NewAuxcGTO I  "AutoAux" End
| 61>       NewCabsGTO I  "AutoAux" End
| 62>       NewECP     Xe "SK-MCDHF-RSC" End
| 63>       NewGTO     Xe "cc-pVTZ-PP"   End
| 64>       NewAuxjGTO Xe "AutoAux" End
| 65>       NewAuxcGTO Xe "AutoAux" End
| 66>       NewCabsGTO Xe "AutoAux" End
| 67>     End
| 68> 
| 69>                          ****END OF INPUT****
================================================================================
Warning! AutoAux has not been tested for CABS - use at your own risk!
================================================================================

----- Orbital basis set information -----
Your calculation utilizes the basis: cc-pVTZ 
       H, B-Ne : Obtained from the ccRepo (grant-hill.group.shef.ac.uk/ccrepo) Feb. 2017
                 T. H. Dunning, Jr., J. Chem. Phys. 90, 1007 (1989)
            He : Obtained from the ccRepo (grant-hill.group.shef.ac.uk/ccrepo) Feb. 2017
                 D. E. Woon, T. H. Dunning, Jr., J. Chem. Phys. 100, 2975 (1994)
  Li-Be, Na-Mg : Obtained from the ccRepo (grant-hill.group.shef.ac.uk/ccrepo) Feb. 2017
                 B. P. Prascher, D. E. Woon, K. A. Peterson, T. H. Dunning, Jr., A. K. Wilson, Theor. Chem. Acc. 128, 69 (2011)
         Al-Ar : Obtained from the ccRepo (grant-hill.group.shef.ac.uk/ccrepo) Feb. 2017
                 D. E. Woon, T. H. Dunning, Jr., J. Chem. Phys. 98, 1358 (1993)
            Ca : Obtained from the Peterson Research Group Website (tyr0.chem.wsu.edu/~kipeters) Feb. 2017
                 J. Koput, K. A. Peterson, J. Phys. Chem. 106, 9595 (2002)
         Sc-Zn : Obtained from the ccRepo (grant-hill.group.shef.ac.uk/ccrepo) Feb. 2017
                 N. B. Balabanov, K. A. Peterson, J. Chem. Phys. 123, 064107 (2005)
                 N. B. Balabanov, K. A. Peterson, J. Chem. Phys. 125, 074110 (2006)
         Ga-Kr : Obtained from the ccRepo (grant-hill.group.shef.ac.uk/ccrepo) Feb. 2017
                 A. K. Wilson, D. E. Woon, K. A. Peterson, T. H. Dunning, Jr., J. Chem. Phys. 110, 7667 (1999)
             Y : Obtained from the ccRepo (grant-hill.group.shef.ac.uk/ccrepo) Feb. 2017
                 K. A. Peterson, D. Figgen, M. Dolg, H. Stoll, J. Chem. Phys. 126, 124101 (2007)
        Ag, Au : Obtained from the Peterson Research Group Website (tyr0.chem.wsu.edu/~kipeters) Feb. 2017
                 K. A. Peterson, C. Puzzarini, Theor. Chem. Acc. 114, 283 (2005)

The basis set includes element-specific modifications.

Your calculation utilizes the basis: cc-pVTZ-PP 
       Ca, Sr, Ba, Ra : Obtained from the Peterson Research Group Website (tyr0.chem.wsu.edu/~kipeters) Feb. 2017
                        H. Li, H. Feng, W. Sun, Y. Zhang, Q. Fan, K. A. Peterson, Y. Xie, H. F. Schaefer III, Mol. Phys. 111, 2292 (2013)
  Cu-Zn, Ag-Cd, Au-Hg : Obtained from the ccRepo (grant-hill.group.shef.ac.uk/ccrepo) Feb. 2017
                        K. A. Peterson, C. Puzzarini, Theor. Chem. Acc. 114, 283 (2005)
  Ga-Kr, In-Xe, Tl-Rn : Obtained from the ccRepo (grant-hill.group.shef.ac.uk/ccrepo) Feb. 2017
                        K. A. Peterson, J. Chem. Phys. 119, 11099 (2003)
                        K. A. Peterson, D. Figgen, E. Goll, H. Stoll, M. Dolg, J. Chem. Phys. 119, 11113 (2003)
                 Y-Pd : Obtained from the ccRepo (grant-hill.group.shef.ac.uk/ccrepo) Feb. 2017
                        K. A. Peterson, D. Figgen, M. Dolg, H. Stoll, J. Chem. Phys. 126, 124101 (2007)
                Hf-Pt : Obtained from the ccRepo (grant-hill.group.shef.ac.uk/ccrepo) Feb. 2017
                        D. Figgen, K. A. Peterson, M. Dolg, H. Stoll, J. Chem. Phys. 130, 164108 (2009)
                    U : Obtained from the ccRepo (grant-hill.group.shef.ac.uk/ccrepo) Feb. 2020
                        K. A. Peterson, J. Chem. Phys. 142, 074105 (2015)

----- AuxJ basis set information -----
Your calculation utilizes the AutoAux generation procedure.
  G. L. Stoychev, A. A. Auer, F. Neese, J. Chem. Theory Comput. 13, 554 (2017)

The basis set includes element-specific modifications.

----- AuxC basis set information -----
Your calculation utilizes the AutoAux generation procedure.
  G. L. Stoychev, A. A. Auer, F. Neese, J. Chem. Theory Comput. 13, 554 (2017)

The basis set includes element-specific modifications.

----- CABS information -----
Your calculation utilizes the AutoAux generation procedure.
  G. L. Stoychev, A. A. Auer, F. Neese, J. Chem. Theory Comput. 13, 554 (2017)

The basis set includes element-specific modifications.


                    <<< The CABS basis set will be decontracted >>>

================================================================================
                                        WARNINGS
                       Please study these warnings very carefully!
================================================================================


WARNING: No MP2 level density has been requested!
         To caclulate MP2 level properties use
         %mp2 Density relaxed end
         or
         %mp2 Density unrelaxed end

WARNING: Post HF methods need fully converged wavefunctions
  ===> : Setting SCFConvForced true
         You can overwrite this default with %scf ConvForced false 


INFO   : the flag for use of the SHARK integral package has been found!


                       ****************************
                       * Single Point Calculation *
                       ****************************

---------------------------------
CARTESIAN COORDINATES (ANGSTROEM)
---------------------------------
  C     -0.046419    0.662963    0.000000
  O     -0.046419   -0.756916    0.000000
  H     -1.088130    0.979113    0.000000
  H      0.864374   -1.062148    0.000000
  H      0.436814    1.080293    0.889747
  H      0.436814    1.080293   -0.889747

----------------------------
CARTESIAN COORDINATES (A.U.)
----------------------------
  NO LB      ZA    FRAG     MASS         X           Y           Z
   0 C     6.0000    0    12.011   -0.087719    1.252819    0.000000
   1 O     8.0000    0    15.999   -0.087719   -1.430364    0.000000
   2 H     1.0000    0     1.008   -2.056268    1.850255    0.000000
   3 H     1.0000    0     1.008    1.633430   -2.007169    0.000000
   4 H     1.0000    0     1.008    0.825459    2.041458    1.681378
   5 H     1.0000    0     1.008    0.825459    2.041458   -1.681378



           ************************************************************
           *        Program running with 5 parallel MPI-processes     *
           *              working on a common directory               *
           ************************************************************
------------------------------------------------------------------------------
                   ___                                                        
                  /   \      - P O W E R E D   B Y -                         
                 /     \                                                     
                 |  |  |   _    _      __       _____    __    __             
                 |  |  |  | |  | |    /  \     |  _  \  |  |  /  |          
                  \  \/   | |  | |   /    \    | | | |  |  | /  /          
                 / \  \   | |__| |  /  /\  \   | |_| |  |  |/  /          
                |  |  |   |  __  | /  /__\  \  |    /   |      \           
                |  |  |   | |  | | |   __   |  |    \   |  |\   \          
                \     /   | |  | | |  |  |  |  | |\  \  |  | \   \       
                 \___/    |_|  |_| |__|  |__|  |_| \__\ |__|  \__/        
                                                                              
                      - O R C A' S   B I G   F R I E N D -                    
                                      &                                       
                       - I N T E G R A L  F E E D E R -                       
                                                                              
 v1 FN, 2020, v2 2021                                                         
------------------------------------------------------------------------------


Reading SHARK input file ch3oh_lw1x-p34_Compound_2.SHARKINP.tmp ... ok
----------------------
SHARK INTEGRAL PACKAGE
----------------------

Number of atoms                             ...      6
Number of basis functions                   ...    116
Number of shells                            ...     44
Maximum angular momentum                    ...      3
Integral batch strategy                     ... SHARK/LIBINT Hybrid
RI-J (if used) integral strategy            ... SPLIT-RIJ (Revised 2003 algorithm where possible)
Printlevel                                  ...      1
Contraction scheme used                     ... SEGMENTED contraction
Coulomb Range Separation                    ... NOT USED
Exchange Range Separation                   ... NOT USED
Finite Nucleus Model                        ... NOT USED
Auxiliary Coulomb fitting basis             ... AVAILABLE
   # of basis functions in Aux-J            ...    526
   # of shells in Aux-J                     ...    166
   Maximum angular momentum in Aux-J        ...      4
Auxiliary J/K fitting basis                 ... NOT available
Auxiliary Correlation fitting basis         ... AVAILABLE
   # of basis functions in Aux-C            ...    526
   # of shells in Aux-C                     ...    166
   Maximum angular momentum in Aux-C        ...      4
Auxiliary 'external' fitting basis          ... NOT available
Integral threshold                          ...     1.000000e-10
Primitive cut-off                           ...     1.000000e-11
Primitive pair pre-selection threshold      ...     1.000000e-11

Calculating pre-screening integrals         ... done (  0.0 sec) Dimension = 44
Organizing shell pair data                  ... done (  0.0 sec)
Shell pair information
Total number of shell pairs                 ...       990
Shell pairs after pre-screening             ...       990
Total number of primitive shell pairs       ...      3700
Primitive shell pairs kept                  ...      3269
          la=0 lb=0:    210 shell pairs
          la=1 lb=0:    280 shell pairs
          la=1 lb=1:    105 shell pairs
          la=2 lb=0:    160 shell pairs
          la=2 lb=1:    112 shell pairs
          la=2 lb=2:     36 shell pairs
          la=3 lb=0:     40 shell pairs
          la=3 lb=1:     28 shell pairs
          la=3 lb=2:     16 shell pairs
          la=3 lb=3:      3 shell pairs

Calculating one electron integrals          ... done (  0.0 sec)
Calculating RI/J V-Matrix + Cholesky decomp.... done (  0.0 sec)
Calculating RI/C V-Matrix + Cholesky decomp.... done (  0.0 sec)
Calculating Nuclear repulsion               ... done (  0.0 sec) ENN=     40.298007629429 Eh

SHARK setup successfully completed in   0.2 seconds

Maximum memory used throughout the entire GTOINT-calculation: 17.6 MB


           ************************************************************
           *        Program running with 5 parallel MPI-processes     *
           *              working on a common directory               *
           ************************************************************

Diagonalization of the overlap matrix:
Smallest eigenvalue                        ... 1.854e-03
Time for diagonalization                   ...    0.002 sec
Threshold for overlap eigenvalues          ... 1.000e-08
Number of eigenvalues below threshold      ... 0
Time for construction of square roots      ...    0.004 sec
Total time needed                          ...    0.006 sec

--------------------
COSX GRID GENERATION
--------------------

GRIDX 1
-------
General Integration Accuracy     IntAcc      ... 4.020
Radial Grid Type                 RadialGrid  ... OptM3 with GC (2021)
Angular Grid (max. ang.)         AngularGrid ... 2 (Lebedev-110)
Angular grid pruning method      GridPruning ... 4 (adaptive)
Weight generation scheme         WeightScheme... Becke
Basis function cutoff            BFCut       ... 1.0000e-10
Integration weight cutoff        WCut        ... 1.0000e-14
Angular grids for H and He will be reduced by one unit
Partially contracted basis set               ... on
Rotationally invariant grid construction     ... off

Total number of grid points                  ...     6919
Total number of batches                      ...      112
Average number of points per batch           ...       61
Average number of grid points per atom       ...     1153
UseSFitting                                  ... on

GRIDX 2
-------
General Integration Accuracy     IntAcc      ... 4.338
Radial Grid Type                 RadialGrid  ... OptM3 with GC (2021)
Angular Grid (max. ang.)         AngularGrid ... 3 (Lebedev-194)
Angular grid pruning method      GridPruning ... 4 (adaptive)
Weight generation scheme         WeightScheme... Becke
Basis function cutoff            BFCut       ... 1.0000e-10
Integration weight cutoff        WCut        ... 1.0000e-14
Angular grids for H and He will be reduced by one unit
Partially contracted basis set               ... on
Rotationally invariant grid construction     ... off

Total number of grid points                  ...    15207
Total number of batches                      ...      241
Average number of points per batch           ...       63
Average number of grid points per atom       ...     2534
UseSFitting                                  ... on

GRIDX 3
-------
General Integration Accuracy     IntAcc      ... 4.871
Radial Grid Type                 RadialGrid  ... OptM3 with GC (2021)
Angular Grid (max. ang.)         AngularGrid ... 4 (Lebedev-302)
Angular grid pruning method      GridPruning ... 4 (adaptive)
Weight generation scheme         WeightScheme... Becke
Basis function cutoff            BFCut       ... 1.0000e-10
Integration weight cutoff        WCut        ... 1.0000e-14
Angular grids for H and He will be reduced by one unit
Partially contracted basis set               ... on
Rotationally invariant grid construction     ... off

Total number of grid points                  ...    30645
Total number of batches                      ...      481
Average number of points per batch           ...       63
Average number of grid points per atom       ...     5108
UseSFitting                                  ... on

Time for X-Grid setup             =    0.303 sec

 re-compute Schwartz prescreening matrix in partically contracted basis (1) ...done (   0.078 sec)
--------------
SCF ITERATIONS
--------------
ITER       Energy         Delta-E        Max-DP      RMS-DP      [F,P]     Damp
               ***  Starting incremental Fock matrix formation  ***
                      *** Initiating the SOSCF procedure ***
                      *** Re-Reading the Fockian *** 
                      *** Removing any level shift *** 
ITER      Energy       Delta-E        Grad      Rot      Max-DP    RMS-DP
  0   -115.08916258 -115.0891625827  0.002258  0.002258  0.001066  0.000017
               *** Restarting incremental Fock matrix formation ***
  1   -115.08916856  -0.0000059820  0.000187  0.000160  0.000346  0.000009
  2   -115.08916922  -0.0000006579  0.000126  0.000044  0.000248  0.000004
                 **** Energy Check signals convergence ****
              ***Rediagonalizing the Fockian in SOSCF/NRSCF***

               *****************************************************
               *                     SUCCESS                       *
               *           SCF CONVERGED AFTER   3 CYCLES          *
               *****************************************************

Old exchange energy                            =    -14.860813339 Eh
New exchange energy                            =    -14.860789183 Eh
Exchange energy change after final integration =      0.000024156 Eh
Total energy after final integration           =   -115.089145256 Eh
Final COS-X integration done in                =     0.585 sec
Total Energy       :         -115.08914526 Eh           -3131.73486 eV
  Last Energy change         ...   -1.8901e-07  Tolerance :   1.0000e-06
  Last MAX-Density change    ...    3.1086e-15  Tolerance :   1.0000e-05
             **** THE GBW FILE WAS UPDATED (ch3oh_lw1x-p34_Compound_2.gbw) ****
             **** DENSITY ch3oh_lw1x-p34_Compound_2.scfp WAS UPDATED ****
             **** ENERGY FILE WAS UPDATED (ch3oh_lw1x-p34_Compound_2.en.tmp) ****
             **** THE GBW FILE WAS UPDATED (ch3oh_lw1x-p34_Compound_2.gbw) ****
             **** DENSITY ch3oh_lw1x-p34_Compound_2.scfp WAS UPDATED ****
----------------
ORBITAL ENERGIES
----------------

  NO   OCC          E(Eh)            E(eV) 
   0   2.0000     -20.552295      -559.2564 
   1   2.0000     -11.269753      -306.6656 
   2   2.0000      -1.353371       -36.8271 
   3   2.0000      -0.923347       -25.1255 
   4   2.0000      -0.687751       -18.7147 
   5   2.0000      -0.617185       -16.7945 
   6   2.0000      -0.590709       -16.0740 
   7   2.0000      -0.500780       -13.6269 
   8   2.0000      -0.448767       -12.2116 
   9   0.0000       0.138640         3.7726 
  10   0.0000       0.178124         4.8470 
  11   0.0000       0.220460         5.9990 
  12   0.0000       0.223986         6.0950 
  13   0.0000       0.290695         7.9102 
  14   0.0000       0.386460        10.5161 
  15   0.0000       0.404889        11.0176 
  16   0.0000       0.546043        14.8586 
  17   0.0000       0.580885        15.8067 
  18   0.0000       0.622821        16.9478 
  19   0.0000       0.625661        17.0251 
  20   0.0000       0.638046        17.3621 
  21   0.0000       0.690848        18.7989 
  22   0.0000       0.702929        19.1277 
  23   0.0000       0.721852        19.6426 
  24   0.0000       0.832125        22.6433 
  25   0.0000       0.868017        23.6199 
  26   0.0000       0.869586        23.6626 
  27   0.0000       0.931040        25.3349 
  28   0.0000       1.068258        29.0688 
  29   0.0000       1.098828        29.9006 
  30   0.0000       1.177816        32.0500 
  31   0.0000       1.189557        32.3695 
  32   0.0000       1.261898        34.3380 
  33   0.0000       1.269051        34.5326 
  34   0.0000       1.281325        34.8666 
  35   0.0000       1.365457        37.1560 
  36   0.0000       1.444269        39.3005 
  37   0.0000       1.489617        40.5345 
  38   0.0000       1.522134        41.4194 
  39   0.0000       1.543687        42.0059 
  40   0.0000       1.582744        43.0687 
  41   0.0000       1.620576        44.0981 
  42   0.0000       1.772463        48.2312 
  43   0.0000       2.091186        56.9041 
  44   0.0000       2.179282        59.3013 
  45   0.0000       2.198744        59.8309 
  46   0.0000       2.303544        62.6826 
  47   0.0000       2.322589        63.2009 
  48   0.0000       2.490797        67.7780 
  49   0.0000       2.508368        68.2562 
  50   0.0000       2.576769        70.1174 
  51   0.0000       2.807141        76.3862 
  52   0.0000       2.946398        80.1756 
  53   0.0000       3.055929        83.1561 
  54   0.0000       3.108963        84.5992 
  55   0.0000       3.116546        84.8055 
  56   0.0000       3.147143        85.6381 
  57   0.0000       3.228581        87.8542 
  58   0.0000       3.241844        88.2151 
  59   0.0000       3.311812        90.1190 
  60   0.0000       3.314702        90.1976 
  61   0.0000       3.343462        90.9802 
  62   0.0000       3.385619        92.1274 
  63   0.0000       3.494339        95.0858 
  64   0.0000       3.613770        98.3357 
  65   0.0000       3.634468        98.8989 
  66   0.0000       3.698050       100.6291 
  67   0.0000       3.705033       100.8191 
  68   0.0000       3.745859       101.9300 
  69   0.0000       3.754968       102.1779 
  70   0.0000       3.808742       103.6412 
  71   0.0000       3.834532       104.3429 
  72   0.0000       3.907968       106.3412 
  73   0.0000       4.006160       109.0132 
  74   0.0000       4.024191       109.5038 
  75   0.0000       4.117545       112.0441 
  76   0.0000       4.155657       113.0812 
  77   0.0000       4.169287       113.4521 
  78   0.0000       4.244103       115.4879 
  79   0.0000       4.249866       115.6447 
  80   0.0000       4.288397       116.6932 
  81   0.0000       4.397716       119.6679 
  82   0.0000       4.438571       120.7797 
  83   0.0000       4.467377       121.5635 
  84   0.0000       4.553420       123.9049 
  85   0.0000       4.576433       124.5311 
  86   0.0000       4.709589       128.1544 
  87   0.0000       4.779550       130.0582 
  88   0.0000       4.986209       135.6816 
  89   0.0000       5.027852       136.8148 
  90   0.0000       5.049570       137.4058 
  91   0.0000       5.195808       141.3851 
  92   0.0000       5.263302       143.2217 
  93   0.0000       5.309344       144.4746 
  94   0.0000       5.361674       145.8986 
  95   0.0000       5.429187       147.7357 
  96   0.0000       5.538002       150.6967 
  97   0.0000       5.541338       150.7875 
  98   0.0000       5.557477       151.2266 
  99   0.0000       5.789471       157.5395 
 100   0.0000       5.937841       161.5769 
 101   0.0000       6.188852       168.4072 
 102   0.0000       6.195334       168.5836 
 103   0.0000       6.242284       169.8612 
 104   0.0000       6.431480       175.0095 
 105   0.0000       6.644586       180.8084 
 106   0.0000       6.994670       190.3346 
 107   0.0000       7.122045       193.8007 
 108   0.0000       7.180543       195.3925 
 109   0.0000       7.229316       196.7197 
 110   0.0000       7.353746       200.1056 
 111   0.0000       7.416392       201.8103 
 112   0.0000       7.598439       206.7640 
 113   0.0000       7.911962       215.2954 
 114   0.0000      12.121490       329.8425 
 115   0.0000      13.683590       372.3494 
Total SCF time: 0 days 0 hours 0 min 2 sec 

Maximum memory used throughout the entire SCF-calculation: 62.0 MB


           ************************************************************
           *        Program running with 5 parallel MPI-processes     *
           *              working on a common directory               *
           ************************************************************

------------------------------------------------------------------------------
                                ORCA  MP2 
------------------------------------------------------------------------------

Freezing NCore=4 chemical core electrons
Initializing SHARK ... done


------------------------------------------------------------------------------
                           ORCA ORBITAL LOCALIZATION
------------------------------------------------------------------------------

Input orbitals are from                  ... ch3oh_lw1x-p34_Compound_2.gbw
Output orbitals are to                   ... ch3oh_lw1x-p34_Compound_2.loc
Max. number of iterations                ... 128
Localizations seeded randomly            ... off
Convergence tolerance                    ... 1.000e-06
Treshold for strong local MOs            ... 9.500e-01
Treshold for bond MOs                    ... 8.500e-01
Operator                                 ... 0
Orbital range for localization           ... 2 to 8
Localization criterion                   ... FOSTER-BOYS (AUGMENTED HESSIAN)
Doing the dipole integrals     ... o.k.
Initial value of the localization sum :    14.487977
ITERATION   0 : L=   23.6760586917 DL=  9.19e+00 (AVERGE_DL)=    0.6614587702 
ITERATION   1 : L=   24.0211052197 DL=  3.45e-01 (AVERGE_DL)=    0.1281826316 
ITERATION   2 : L=   24.0263920074 DL=  5.29e-03 (AVERGE_DL)=    0.0158666882 
ITERATION   3 : L=   24.0268752093 DL=  4.83e-04 (AVERGE_DL)=    0.0047968340 
ITERATION   4 : L=   24.0269287250 DL=  5.35e-05 (AVERGE_DL)=    0.0015963605 
ITERATION   5 : L=   24.0269339743 DL=  5.25e-06 (AVERGE_DL)=    0.0004999668 
ITERATION   6 : L=   24.0269344682 DL=  4.94e-07 (AVERGE_DL)=    0.0001533527 
LOCALIZATION SUM CONVERGED

------------------------------------------------------
AUGMENTED HESSIAN OPTIMIZATION OF FOSTER-BOYS ORBITALS
------------------------------------------------------

Spin operator:           0
Orbital window:          2 to 8
Number of iterations:    128
Gradient tolerance:      1.000e-06
Number of pairs:         21
Davidson threshold:      2000
Diagonalization method:  LAPACK
Iter:    0   L: 24.0269344682   Grad. norm: 4.233119e-04
   *** Likely close to a maximum now. ***
       Augmented Hessian eigenvalues:  9.75e-08 -1.35e+00 -3.51e+00 -5.12e+00 ... 
Iter:    1   L: 24.0269345169   Grad. norm: 4.960184e-08
LOCALIZATION HAS CONVERGED.

Eigenvalues of the Hessian:
  0 -1.347e+00
  1 -3.509e+00
  2 -5.125e+00
  3 -5.527e+00
  4 -7.499e+00
  5 -1.030e+01
  6 -1.741e+01
  7 -2.101e+01
  8 -2.156e+01
  9 -2.426e+01
    ...


------------------------------------------------------------------------------- 
                    LOCALIZED MOLECULAR ORBITAL COMPOSITIONS                   
------------------------------------------------------------------------------- 

The Mulliken populations for each LMO on each atom are computed
The LMO`s will be ordered according to atom index and type
  (A) Strongly localized MO`s have populations of >=0.950 on one atom
  (B) Two center bond orbitals have populations of >=0.850 on two atoms
  (C) Other MO`s are considered to be `delocalized`

FOUND  -   2 strongly local MO`s
       -   5 two center bond MO`s
       -   0 significantly delocalized MO`s

Rather strongly localized orbitals:
MO   3:   1O  -   0.985256
MO   2:   1O  -   0.985256
Bond-like localized orbitals:
MO   8:   5H  -   0.501454  and   0C  -   0.534924
MO   7:   4H  -   0.501454  and   0C  -   0.534924
MO   6:   3H  -   0.390652  and   1O  -   0.616485
MO   5:   2H  -   0.477010  and   0C  -   0.548539
MO   4:   1O  -   0.655633  and   0C  -   0.355378
Localized MO's were stored in: ch3oh_lw1x-p34_Compound_2.loc



Calculating differential overlap integrals ... ok
Threshold for domain construction in prescreening: TCutDOPre = 3.0e-02

--------------------------
ELECTRON PAIR PRESCREENING
--------------------------

Dipole-based pair screening          .... used

   TCutDOij = 1.000000e-05
   TCutPre  = 1.000000e-06
   .... Finished loop over pairs
Total time spent in the prescreening                  ...     0.001 sec
sum of pair energies estimated for screened out pairs ...       0.000000000000 Eh

---------------------------
MAP CONSTRUCTION THRESHOLDS
---------------------------
    TCutMKN     ...     1.0e-03
    TCutDO      ...     5.0e-03
    TCutC(MO)   ...     1.0e-03
    TCutC(PAO)  ...     1.0e-03

--------------------------------
LOCAL RI TRANSFORMATION (IAVPAO)
--------------------------------

Orbital window:       2 to 8
Number of PAOs:     116
Basis functions:    116 (44 shells)
Aux. functions:     526 (166 shells)
Use SHARK:           on

Processing maps (0.0 sec)
Average map sizes:
   Aux shells -> MOs               7.0
   Aux shells -> PAOs            116.0
   MOs        -> AO shells        44.0
   PAOs       -> AO shells        44.0

Calculating integrals (0.1 sec, 3.265 MB)
Sorting integrals (0.0 sec, 3.259 MB)
Total time for the integral transformation: 0.1 sec

----------------------------
Local MP2 Energy Calculation
----------------------------
Number of orbital pairs included:     28
Truncation parameters:
    PAOOverlapThresh    =        1.000e-08
    TCutPNO             =        1.000e-09

Spin component scaling                      .... not used
MP2 energy scaling factor                   .... 1.000

Formation of semicanonical amplitudes.
 10% done.
 20% done.
 30% done.
 40% done.
 50% done.
 60% done.
 70% done.
 80% done.
 90% done.
100% done.

Finished the LMP2 guess in 0.1 sec.

Average number of PAOs per pair        116.0
Average number of nrPAOs per pair      107.0
Average number of PNOs per pair         90.5
Average number of AUX  per pair        511.1

Semicanonical MP2 energy:                   -0.416306954706 Eh
Semicanonical MP2 energy in PNO basis:      -0.416305826616 Eh

Initial amplitudes guess done. Entering DLPNO-MP2 iteration loop:
   Max. no of iterations          ...  100
   Energy convergence tolerance   ...    1.0e-06 Eh
   Residual convergence tolerance ...    5.0e-06
   Fock matrix cutoff             ...    1.0e-05 Eh
   Max # vectors in DIIS          ...  7
   Start iteration of DIIS        ...  0
   Levelshift                     ...  2.000e-01 Eh
   Damping before turning on DIIS ...  5.000e-01
   Damping after turning on DIIS  ...  0.000e+00

                           *** Turning on DIIS ***
Iter=   0:  ECORR= -0.423654200957  DE=   7.3e-03 RMAX=   6.3e-03
Iter=   1:  ECORR= -0.427577139966  DE=   3.9e-03 RMAX=   3.2e-03
Iter=   2:  ECORR= -0.428161966836  DE=   5.8e-04 RMAX=   4.9e-04
Iter=   3:  ECORR= -0.428228079427  DE=   6.6e-05 RMAX=   1.7e-04
Iter=   4:  ECORR= -0.428232267722  DE=   4.2e-06 RMAX=   2.4e-05
Iter=   5:  ECORR= -0.428231935241  DE=   3.3e-07 RMAX=   8.5e-06
Iter=   6:  ECORR= -0.428231853198  DE=   8.2e-08 RMAX=   9.1e-07 => CONVERGED

[...]
   8   2.0000      -0.448830       -12.2133 
   9   0.0000       0.138426         3.7668 
  10   0.0000       0.177380         4.8267 
  11   0.0000       0.220457         5.9989 
  12   0.0000       0.223848         6.0912 
  13   0.0000       0.288133         7.8405 
  14   0.0000       0.385667        10.4945 
  15   0.0000       0.404211        10.9991 
  16   0.0000       0.543946        14.8015 
  17   0.0000       0.578374        15.7384 
  18   0.0000       0.622565        16.9408 
  19   0.0000       0.623708        16.9720 
  20   0.0000       0.636579        17.3222 
  21   0.0000       0.687847        18.7173 
  22   0.0000       0.702265        19.1096 
  23   0.0000       0.720496        19.6057 
  24   0.0000       0.824938        22.4477 
  25   0.0000       0.865561        23.5531 
  26   0.0000       0.867502        23.6059 
  27   0.0000       0.928858        25.2755 
  28   0.0000       1.068235        29.0681 
  29   0.0000       1.097883        29.8749 
  30   0.0000       1.172150        31.8958 
  31   0.0000       1.186951        32.2986 
  32   0.0000       1.224009        33.3070 
  33   0.0000       1.260108        34.2893 
  34   0.0000       1.279659        34.8213 
  35   0.0000       1.331936        36.2438 
  36   0.0000       1.418807        38.6077 
  37   0.0000       1.480436        40.2847 
  38   0.0000       1.487420        40.4748 
  39   0.0000       1.514668        41.2162 
  40   0.0000       1.535675        41.7879 
  41   0.0000       1.553945        42.2850 
  42   0.0000       1.611885        43.8616 
  43   0.0000       2.085968        56.7621 
  44   0.0000       2.166240        58.9464 
  45   0.0000       2.187159        59.5156 
  46   0.0000       2.231062        60.7103 
  47   0.0000       2.290911        62.3388 
  48   0.0000       2.471208        67.2450 
  49   0.0000       2.484247        67.5998 
  50   0.0000       2.531635        68.8893 
  51   0.0000       2.681989        72.9806 
  52   0.0000       2.831913        77.0603 
  53   0.0000       2.925063        79.5950 
  54   0.0000       3.052215        83.0550 
  55   0.0000       3.108886        84.5971 
  56   0.0000       3.145683        85.5984 
  57   0.0000       3.199436        87.0611 
  58   0.0000       3.220150        87.6247 
  59   0.0000       3.239212        88.1434 
  60   0.0000       3.281049        89.2819 
  61   0.0000       3.307548        90.0030 
  62   0.0000       3.337393        90.8151 
  63   0.0000       3.381119        92.0049 
  64   0.0000       3.501908        95.2918 
  65   0.0000       3.595911        97.8497 
  66   0.0000       3.615588        98.3851 
  67   0.0000       3.677969       100.0826 
  68   0.0000       3.686014       100.3015 
  69   0.0000       3.734713       101.6267 
  70   0.0000       3.750239       102.0492 
  71   0.0000       3.802001       103.4577 
  72   0.0000       3.901048       106.1529 
  73   0.0000       3.941398       107.2509 
  74   0.0000       4.000620       108.8624 
  75   0.0000       4.023432       109.4831 
  76   0.0000       4.053927       110.3129 
  77   0.0000       4.117608       112.0458 
  78   0.0000       4.135211       112.5248 
  79   0.0000       4.238373       115.3320 
  80   0.0000       4.241772       115.4245 
  81   0.0000       4.284114       116.5767 
  82   0.0000       4.377355       119.1139 
  83   0.0000       4.396119       119.6245 
  84   0.0000       4.437401       120.7478 
  85   0.0000       4.533236       123.3556 
  86   0.0000       4.595899       125.0608 
  87   0.0000       4.602662       125.2448 
  88   0.0000       4.865732       132.4033 
  89   0.0000       4.949261       134.6762 
  90   0.0000       4.984301       135.6297 
  91   0.0000       5.057826       137.6304 
  92   0.0000       5.166793       140.5956 
  93   0.0000       5.290354       143.9579 
  94   0.0000       5.297148       144.1427 
  95   0.0000       5.406545       147.1196 
  96   0.0000       5.427551       147.6912 
  97   0.0000       5.528742       150.4447 
  98   0.0000       5.530964       150.5052 
  99   0.0000       5.649379       153.7274 
 100   0.0000       5.735930       156.0826 
 101   0.0000       5.923942       161.1987 
 102   0.0000       6.067656       165.1093 
 103   0.0000       6.139946       167.0764 
 104   0.0000       6.197279       168.6365 
 105   0.0000       6.226726       169.4378 
 106   0.0000       6.426424       174.8719 
 107   0.0000       6.844702       186.2538 
 108   0.0000       6.991578       190.2505 
 109   0.0000       7.115721       193.6286 
 110   0.0000       7.211246       196.2280 
 111   0.0000       7.242658       197.0828 
 112   0.0000       7.350854       200.0269 
 113   0.0000       7.519984       204.6292 
 114   0.0000       7.811072       212.5501 
 115   0.0000       8.326663       226.5800 
 116   0.0000      11.255964       306.2904 
 117   0.0000      11.465890       312.0027 
 118   0.0000      11.508145       313.1525 
 119   0.0000      13.313602       362.2815 
 120   0.0000      15.041744       409.3067 
 121   0.0000      15.076981       410.2655 
 122   0.0000      15.608633       424.7325 
 123   0.0000      15.659184       426.1081 
 124   0.0000      15.702426       427.2847 
 125   0.0000      19.114132       520.1220 
 126   0.0000      19.537629       531.6459 
 127   0.0000      20.193434       549.4913 
 128   0.0000      22.706918       617.8867 
 129   0.0000      30.151669       820.4686 
 130   0.0000      30.237436       822.8025 
 131   0.0000      30.241367       822.9094 
 132   0.0000      30.345743       825.7496 
 133   0.0000      30.599719       832.6607 
 134   0.0000      50.923654      1385.7031 
 135   0.0000      51.100602      1390.5181 
 136   0.0000      51.132881      1391.3964 
 137   0.0000      63.023204      1714.9486 
 138   0.0000      90.488506      2462.3174 
 139   0.0000      90.824068      2471.4485 
 140   0.0000      91.249860      2483.0349 
 141   0.0000     107.825493      2934.0808 
Total SCF time: 0 days 0 hours 0 min 2 sec 

Maximum memory used throughout the entire SCF-calculation: 63.2 MB


           ************************************************************
           *        Program running with 5 parallel MPI-processes     *
           *              working on a common directory               *
           ************************************************************

------------------------------------------------------------------------------
                                ORCA  MP2 
------------------------------------------------------------------------------

Freezing NCore=0 chemical core electrons
Initializing SHARK ... done


------------------------------------------------------------------------------
                           ORCA ORBITAL LOCALIZATION
------------------------------------------------------------------------------

Input orbitals are from                  ... ch3oh_lw1x-p34_Compound_6.gbw
Output orbitals are to                   ... ch3oh_lw1x-p34_Compound_6.loc
Max. number of iterations                ... 128
Localizations seeded randomly            ... off
Convergence tolerance                    ... 1.000e-06
Treshold for strong local MOs            ... 9.500e-01
Treshold for bond MOs                    ... 8.500e-01
Operator                                 ... 0
Orbital range for localization           ... 0 to 8
Localization criterion                   ... FOSTER-BOYS (AUGMENTED HESSIAN)
Doing the dipole integrals     ... o.k.
Initial value of the localization sum :    17.817649
ITERATION   0 : L=   25.8857923335 DL=  8.07e+00 (AVERGE_DL)=    0.4734079603 
ITERATION   1 : L=   27.5916776087 DL=  1.71e+00 (AVERGE_DL)=    0.2176825719 
ITERATION   2 : L=   27.6843108326 DL=  9.26e-02 (AVERGE_DL)=    0.0507261777 
ITERATION   3 : L=   27.6850340567 DL=  7.23e-04 (AVERGE_DL)=    0.0044821377 
ITERATION   4 : L=   27.6851052721 DL=  7.12e-05 (AVERGE_DL)=    0.0014064877 
ITERATION   5 : L=   27.6851123408 DL=  7.07e-06 (AVERGE_DL)=    0.0004431142 
ITERATION   6 : L=   27.6851130208 DL=  6.80e-07 (AVERGE_DL)=    0.0001374443 
LOCALIZATION SUM CONVERGED

------------------------------------------------------
AUGMENTED HESSIAN OPTIMIZATION OF FOSTER-BOYS ORBITALS
------------------------------------------------------

Spin operator:           0
Orbital window:          0 to 8
Number of iterations:    128
Gradient tolerance:      1.000e-06
Number of pairs:         36
Davidson threshold:      2000
Diagonalization method:  LAPACK
Iter:    0   L: 27.6851130208   Grad. norm: 4.955278e-04
   *** Likely close to a maximum now. ***
       Augmented Hessian eigenvalues:  1.38e-07 -9.31e-01 -1.36e+00 -1.41e+00 ... 
Iter:    1   L: 27.6851130896   Grad. norm: 6.903557e-08
LOCALIZATION HAS CONVERGED.

Eigenvalues of the Hessian:
  0 -9.314e-01
  1 -1.359e+00
  2 -1.406e+00
  3 -3.505e+00
  4 -3.513e+00
  5 -4.894e+00
  6 -5.134e+00
  7 -5.552e+00
  8 -7.248e+00
  9 -7.513e+00
    ...


------------------------------------------------------------------------------- 
                    LOCALIZED MOLECULAR ORBITAL COMPOSITIONS                   
------------------------------------------------------------------------------- 

The Mulliken populations for each LMO on each atom are computed
The LMO`s will be ordered according to atom index and type
  (A) Strongly localized MO`s have populations of >=0.950 on one atom
  (B) Two center bond orbitals have populations of >=0.850 on two atoms
  (C) Other MO`s are considered to be `delocalized`

FOUND  -   4 strongly local MO`s
       -   5 two center bond MO`s
       -   0 significantly delocalized MO`s

Rather strongly localized orbitals:
MO   3:   1O  -   0.984559
MO   2:   1O  -   0.984559
MO   1:   1O  -   1.000074
MO   0:   0C  -   1.000945
Bond-like localized orbitals:
MO   8:   5H  -   0.515574  and   0C  -   0.517487
MO   7:   4H  -   0.515574  and   0C  -   0.517487
MO   6:   3H  -   0.395757  and   1O  -   0.613031
MO   5:   2H  -   0.492129  and   0C  -   0.528717
MO   4:   1O  -   0.660601  and   0C  -   0.352106
Localized MO's were stored in: ch3oh_lw1x-p34_Compound_6.loc



Calculating differential overlap integrals ... ok
Threshold for domain construction in prescreening: TCutDOPre = 3.0e-02

--------------------------
ELECTRON PAIR PRESCREENING
--------------------------

Dipole-based pair screening          .... used

   TCutDOij = 1.000000e-05
   TCutPre  = 1.000000e-06
   .... Finished loop over pairs
Total time spent in the prescreening                  ...     0.002 sec
sum of pair energies estimated for screened out pairs ...       0.000000000000 Eh

---------------------------
MAP CONSTRUCTION THRESHOLDS
---------------------------
    TCutMKN     ...     1.0e-03
    TCutDO      ...     5.0e-03
    TCutC(MO)   ...     1.0e-03
    TCutC(PAO)  ...     1.0e-03

--------------------------------
LOCAL RI TRANSFORMATION (IAVPAO)
--------------------------------

Orbital window:       0 to 8
Number of PAOs:     142
Basis functions:    142 (54 shells)
Aux. functions:     658 (190 shells)
Use SHARK:           on

Processing maps (0.0 sec)
Average map sizes:
   Aux shells -> MOs               9.0
   Aux shells -> PAOs            142.0
   MOs        -> AO shells        53.3
   PAOs       -> AO shells        54.0

Calculating integrals (0.1 sec, 6.423 MB)
Sorting integrals (0.0 sec, 6.416 MB)
Total time for the integral transformation: 0.1 sec

----------------------------
Local MP2 Energy Calculation
----------------------------
Number of orbital pairs included:     45
Truncation parameters:
    PAOOverlapThresh    =        1.000e-08
    TCutPNO             =        1.000e-09

Spin component scaling                      .... not used
MP2 energy scaling factor                   .... 1.000

Formation of semicanonical amplitudes.
 10% done.
 20% done.
 30% done.
 40% done.
 50% done.
 60% done.
 70% done.
 80% done.
 90% done.
100% done.

Finished the LMP2 guess in 0.3 sec.

Average number of PAOs per pair        142.0
Average number of nrPAOs per pair      133.0
Average number of PNOs per pair         78.4
Average number of AUX  per pair        611.0

Semicanonical MP2 energy:                   -0.515401235385 Eh
Semicanonical MP2 energy in PNO basis:      -0.515393450270 Eh

Initial amplitudes guess done. Entering DLPNO-MP2 iteration loop:
   Max. no of iterations          ...  100
   Energy convergence tolerance   ...    1.0e-06 Eh
   Residual convergence tolerance ...    5.0e-06
   Fock matrix cutoff             ...    1.0e-05 Eh
   Max # vectors in DIIS          ...  7
   Start iteration of DIIS        ...  0
   Levelshift                     ...  2.000e-01 Eh
   Damping before turning on DIIS ...  5.000e-01
   Damping after turning on DIIS  ...  0.000e+00

                           *** Turning on DIIS ***
Iter=   0:  ECORR= -0.524281354554  DE=   8.9e-03 RMAX=   3.7e-02
Iter=   1:  ECORR= -0.530919934868  DE=   6.6e-03 RMAX=   1.1e-02
Iter=   2:  ECORR= -0.531952776011  DE=   1.0e-03 RMAX=   3.0e-03
Iter=   3:  ECORR= -0.532191996456  DE=   2.4e-04 RMAX=   5.8e-04
Iter=   4:  ECORR= -0.532209623607  DE=   1.8e-05 RMAX=   6.3e-05
Iter=   5:  ECORR= -0.532209654577  DE=   3.1e-08 RMAX=   1.7e-05
Iter=   6:  ECORR= -0.532209392906  DE=   2.6e-07 RMAX=   2.7e-06 => CONVERGED

Finished the DLPNO-MP2 iterations in 1.9 sec.

LMP2 correlation energy (all non-screened pairs)      ...     -0.532209392906 Eh
Semicanonical PNO correction to energy                ...     -0.000007785116 Eh
Sum of pair energies estimated for screened out pairs ...      0.000000000000 Eh
                                                         -----------------------
Total:                                                ...     -0.532217178022 Eh

------------------------------------------------------
 DLPNO-MP2 CORRELATION ENERGY:      -0.532217178022 Eh
------------------------------------------------------

TIMINGS FOR DLPNO-MP2:
Localization                             ...        0.193 sec
Differential overlap integrals           ...        0.693 sec
Prescreening                             ...        0.137 sec
Map setup                                ...        0.001 sec
(ia|v) trafo                             ...        0.148 sec
Semicanonical amplitudes                 ...        0.266 sec
PNO construction                         ...        0.042 sec
DLPNO-MP2 iterations                     ...        1.907 sec
                                             ----------------
Total time                                          3.815 sec


---------------------------------------
MP2 TOTAL ENERGY:     -115.621878600 Eh
---------------------------------------

Maximum memory used throughout the entire MP2-calculation: 109.7 MB

-------------------------   --------------------
FINAL SINGLE POINT ENERGY      -115.621878599903
-------------------------   --------------------


                            ***************************************
                            *     ORCA property calculations      *
                            ***************************************


  WARNING: The energy has been calculated at the MP2 level but the densities
           used in the property calculations are still SCF densities
           MP2 response densities have not been calculated 
           use %mp2 Density relaxed end
           or  %mp2 Density unrelaxed end

                                    ---------------------
                                    Active property flags
                                    ---------------------
   (+) Dipole Moment


------------------------------------------------------------------------------
                       ORCA ELECTRIC PROPERTIES CALCULATION
------------------------------------------------------------------------------

Dipole Moment Calculation                       ... on
Quadrupole Moment Calculation                   ... off
Polarizability Calculation                      ... off
GBWName                                         ... ch3oh_lw1x-p34_Compound_6.gbw
Electron density                                ... ch3oh_lw1x-p34_Compound_6.scfp
The origin for moment calculation is the CENTER OF MASS  = (-0.038047, -0.121072  0.000000)

-------------
DIPOLE MOMENT
-------------
                                X             Y             Z
Electronic contribution:     -0.11967      -1.77307      -0.00000
Nuclear contribution   :      0.68486       2.17929       0.00000
                        -----------------------------------------
Total Dipole Moment    :      0.56519       0.40622      -0.00000
                        -----------------------------------------
Magnitude (a.u.)       :      0.69603
Magnitude (Debye)      :      1.76916



--------------------
Rotational spectrum 
--------------------
 
Rotational constants in cm-1:     4.294188     0.825753     0.797103 
Rotational constants in MHz : 128736.528375 24755.456282 23896.559985 

 Dipole components along the rotational axes: 
x,y,z [a.u.] :    -0.374830    -0.586480    -0.000000 
x,y,z [Debye]:    -0.952743    -1.490713    -0.000000 

 

Timings for individual modules:

Sum of individual times         ...        8.284 sec (=   0.138 min)
GTO integral calculation        ...        0.794 sec (=   0.013 min)   9.6 %
SCF iterations                  ...        3.151 sec (=   0.053 min)  38.0 %
MP2 module                      ...        4.339 sec (=   0.072 min)  52.4 %
================================================================================

----- Orbital basis set information -----
Your calculation utilizes the basis: def2-SVP
   F. Weigend and R. Ahlrichs, Phys. Chem. Chem. Phys. 7, 3297 (2005).



----------------------------------------------------------------------------------------------
                                        COMPOUND BLOCK                                        
                                     SUMMARY OF VARIABLES                                     
----------------------------------------------------------------------------------------------

Variable Name                                           Value             Evaluation String
-------------                                           -----             -----------------
HF_DZ                                    |            -115.09497085    |  
EC_DZ                                    |              -0.47228907    |  
CC_DZ                                    |              -0.46385966    |  EC_DZ-T_DZ
T_DZ                                     |              -0.00842941    |  
HF_TZ                                    |            -115.09931382    |  
EC_TZ                                    |              -0.49546065    |  
CC_TZ                                    |              -0.48043694    |  EC_TZ-T_TZ
T_TZ                                     |              -0.01502371    |  
HF_CBS                                   |            -115.09997247    |  HF_TZ-(HF_TZ-HF_DZ)*3^-5/(3^-5-2^-5)
CC_CBS                                   |              -0.48327778    |  CC_TZ-(CC_TZ-CC_DZ)*3^-4.7405/(3^-4.7405-2^-4.7405)
T_CBS                                    |              -0.01997573    |  T_TZ-(T_TZ-T_DZ)*3^-2.0879/(3^-2.0879-2^-2.0879)
MP_FC                                    |            -115.52492868    |  
MP_FU                                    |            -115.62187860    |  
MP_CV                                    |              -0.09694992    |  MP_FU-MP_FC
MP_PP                                    |            -115.51737824    |  
MP_DK                                    |            -115.58391973    |  
MP_REL                                   |              -0.06654149    |  MP_DK-MP_PP
LW1X                                     |            -115.76671739    |  HF_CBS+CC_CBS+T_CBS+MP_CV+MP_REL
                             ****ORCA TERMINATED NORMALLY****
TOTAL RUN TIME: 0 days 0 hours 3 minutes 29 seconds 129 msec
