
                                 *****************
                                 * O   R   C   A *
                                 *****************

                                            #,                                       
                                            ###                                      
                                            ####                                     
                                            #####                                    
                                            ######                                   
                                           ########,                                 
                                     ,,################,,,,,                         
                               ,,#################################,,                 
                          ,,##########################################,,             
                       ,#########################################, ''#####,          
                    ,#############################################,,   '####,        
                  ,##################################################,,,,####,       
                ,###########''''           ''''###############################       
              ,#####''   ,,,,##########,,,,          '''####'''          '####       
            ,##' ,,,,###########################,,,                        '##       
           ' ,,###''''                  '''############,,,                           
         ,,##''                                '''############,,,,        ,,,,,,###''
      ,#''                                            '''#######################'''  
     '                                                          ''''####''''         
             ,#######,   #######,   ,#######,      ##                                
            ,#'     '#,  ##    ##  ,#'     '#,    #''#        ######   ,####,        
            ##       ##  ##   ,#'  ##            #'  '#       #        #'  '#        
            ##       ##  #######   ##           ,######,      #####,   #    #        
            '#,     ,#'  ##    ##  '#,     ,#' ,#      #,         ##   #,  ,#        
             '#######'   ##     ##  '#######'  #'      '#     #####' # '####'        



                  #######################################################
                  #                        -***-                        #
                  #          Department of theory and spectroscopy      #
                  #    Directorship and core code : Frank Neese         #
                  #        Max Planck Institute fuer Kohlenforschung    #
                  #                Kaiser Wilhelm Platz 1               #
                  #                 D-45470 Muelheim/Ruhr               #
                  #                      Germany                        #
                  #                                                     #
                  #                  All rights reserved                #
                  #                        -***-                        #
                  #######################################################


                         Program Version 5.0.1 -  RELEASE  -


 With contributions from (in alphabetic order):
   Daniel Aravena         : Magnetic Suceptibility
   Michael Atanasov       : Ab Initio Ligand Field Theory (pilot matlab implementation)
   Alexander A. Auer      : GIAO ZORA, VPT2 properties, NMR spectrum
   Ute Becker             : Parallelization
   Giovanni Bistoni       : ED, misc. LED, open-shell LED, HFLD
   Martin Brehm           : Molecular dynamics
   Dmytro Bykov           : SCF Hessian
   Vijay G. Chilkuri      : MRCI spin determinant printing, contributions to CSF-ICE
   Dipayan Datta          : RHF DLPNO-CCSD density
   Achintya Kumar Dutta   : EOM-CC, STEOM-CC
   Dmitry Ganyushin       : Spin-Orbit,Spin-Spin,Magnetic field MRCI
   Miquel Garcia          : C-PCM and meta-GGA Hessian, CC/C-PCM, Gaussian charge scheme
   Yang Guo               : DLPNO-NEVPT2, F12-NEVPT2, CIM, IAO-localization
   Andreas Hansen         : Spin unrestricted coupled pair/coupled cluster methods
   Benjamin Helmich-Paris : MC-RPA, TRAH-SCF, COSX integrals
   Lee Huntington         : MR-EOM, pCC
   Robert Izsak           : Overlap fitted RIJCOSX, COSX-SCS-MP3, EOM
   Marcus Kettner         : VPT2
   Christian Kollmar      : KDIIS, OOCD, Brueckner-CCSD(T), CCSD density, CASPT2, CASPT2-K
   Simone Kossmann        : Meta GGA functionals, TD-DFT gradient, OOMP2, MP2 Hessian
   Martin Krupicka        : Initial AUTO-CI
   Lucas Lang             : DCDCAS
   Marvin Lechner         : AUTO-CI (C++ implementation), FIC-MRCC
   Dagmar Lenk            : GEPOL surface, SMD
   Dimitrios Liakos       : Extrapolation schemes; Compound Job, initial MDCI parallelization
   Dimitrios Manganas     : Further ROCIS development; embedding schemes
   Dimitrios Pantazis     : SARC Basis sets
   Anastasios Papadopoulos: AUTO-CI, single reference methods and gradients
   Taras Petrenko         : DFT Hessian,TD-DFT gradient, ASA, ECA, R-Raman, ABS, FL, XAS/XES, NRVS
   Peter Pinski           : DLPNO-MP2, DLPNO-MP2 Gradient
   Christoph Reimann      : Effective Core Potentials
   Marius Retegan         : Local ZFS, SOC
   Christoph Riplinger    : Optimizer, TS searches, QM/MM, DLPNO-CCSD(T), (RO)-DLPNO pert. Triples
   Tobias Risthaus        : Range-separated hybrids, TD-DFT gradient, RPA, STAB
   Michael Roemelt        : Original ROCIS implementation
   Masaaki Saitow         : Open-shell DLPNO-CCSD energy and density
   Barbara Sandhoefer     : DKH picture change effects
   Avijit Sen             : IP-ROCIS
   Kantharuban Sivalingam : CASSCF convergence, NEVPT2, FIC-MRCI
   Bernardo de Souza      : ESD, SOC TD-DFT
   Georgi Stoychev        : AutoAux, RI-MP2 NMR, DLPNO-MP2 response
   Willem Van den Heuvel  : Paramagnetic NMR
   Boris Wezisla          : Elementary symmetry handling
   Frank Wennmohs         : Technical directorship


 We gratefully acknowledge several colleagues who have allowed us to
 interface, adapt or use parts of their codes:
   Stefan Grimme, W. Hujo, H. Kruse, P. Pracht,  : VdW corrections, initial TS optimization,
                  C. Bannwarth, S. Ehlert          DFT functionals, gCP, sTDA/sTD-DF
   Ed Valeev, F. Pavosevic, A. Kumar             : LibInt (2-el integral package), F12 methods
   Garnet Chan, S. Sharma, J. Yang, R. Olivares  : DMRG
   Ulf Ekstrom                                   : XCFun DFT Library
   Mihaly Kallay                                 : mrcc  (arbitrary order and MRCC methods)
   Jiri Pittner, Ondrej Demel                    : Mk-CCSD
   Frank Weinhold                                : gennbo (NPA and NBO analysis)
   Christopher J. Cramer and Donald G. Truhlar   : smd solvation model
   Lars Goerigk                                  : TD-DFT with DH, B97 family of functionals
   V. Asgeirsson, H. Jonsson                     : NEB implementation
   FAccTs GmbH                                   : IRC, NEB, NEB-TS, DLPNO-Multilevel, CI-OPT
                                                   MM, QMMM, 2- and 3-layer-ONIOM, Crystal-QMMM,
                                                   LR-CPCM, SF, NACMEs, symmetry and pop. for TD-DFT,
                                                   nearIR, NL-DFT gradient (VV10), updates on ESD,
                                                   ML-optimized integration grids
   S Lehtola, MJT Oliveira, MAL Marques          : LibXC Library
   Liviu Ungur et al                             : ANISO software


 Your calculation uses the libint2 library for the computation of 2-el integrals
 For citations please refer to: http://libint.valeyev.net

 Your ORCA version has been built with support for libXC version: 5.1.0
 For citations please refer to: https://tddft.org/programs/libxc/

 This ORCA versions uses:
   CBLAS   interface :  Fast vector & matrix operations
   LAPACKE interface :  Fast linear algebra routines
   SCALAPACK package :  Parallel linear algebra routines
   Shared memory     :  Shared parallel matrices
   BLAS/LAPACK       :  OpenBLAS 0.3.15  USE64BITINT DYNAMIC_ARCH NO_AFFINITY SkylakeX SINGLE_THREADED
        Core in use  :  SkylakeX
   Copyright (c) 2011-2014, The OpenBLAS Project




################################################################################


                                COMPOUND JOB MainJOB 
Basename: ch3oh-lw1x_Compound_0

################################################################################

================================================================================
                                       INPUT FILE
================================================================================
NAME = ch3oh-lw1x_Compound_0.inp
|  1> %Maxcore 1000
|  2>  %Pal nprocs 1 End
|  3>  
|  4>  * xyz 0 1
|  5>  C       -0.046573    0.662925    0.000000 
|  6>  H       -1.087867    0.977315    0.000000 
|  7>  H        0.437742    1.073831    0.889854 
|  8>  H        0.437742    1.073831   -0.889854 
|  9>  O       -0.046573   -0.756341    0.000000 
| 10>  H        0.864403   -1.051800    0.000000 
| 11>  *
| 12>  
| 13> 
| 14>                          ****END OF INPUT****
================================================================================
================================================================================

----- Orbital basis set information -----
Your calculation utilizes the basis: def2-SVP
   F. Weigend and R. Ahlrichs, Phys. Chem. Chem. Phys. 7, 3297 (2005).



################################################################################


                                COMPOUND JOB  1 
Basename: ch3oh-lw1x_Compound_1
NOTE: please remember that MaxCore and PAL settings will be ignored.

################################################################################

================================================================================
                                       INPUT FILE
================================================================================
NAME = ch3oh-lw1x_Compound_1.inp
|  1>     ! DefGrid3 RIJCOSX TightPNO DLPNO-CCSD(T1)-F12 MiniPrint NoPop
|  2>     %Basis
|  3>       Basis "maug-cc-pV(D+d)Z"
|  4>       AuxJ  "AutoAux"
|  5>       AuxC  "AutoAux"
|  6>       CABS  "AutoAux"
|  7>     End
|  8> 
|  9>                          ****END OF INPUT****
================================================================================
Warning! AutoAux has not been tested for CABS - use at your own risk!
================================================================================

----- Orbital basis set information -----
Your calculation utilizes the basis: jun-cc-pV(D+d)Z 
  E. Papajak, D. G. Truhlar, J. Chem. Theory Comput. 7, 10-18 (2011).

----- AuxJ basis set information -----
Your calculation utilizes the AutoAux generation procedure.
  G. L. Stoychev, A. A. Auer, F. Neese, J. Chem. Theory Comput. 13, 554 (2017)

----- AuxC basis set information -----
Your calculation utilizes the AutoAux generation procedure.
  G. L. Stoychev, A. A. Auer, F. Neese, J. Chem. Theory Comput. 13, 554 (2017)

----- CABS information -----
Your calculation utilizes the AutoAux generation procedure.
  G. L. Stoychev, A. A. Auer, F. Neese, J. Chem. Theory Comput. 13, 554 (2017)


                    <<< The CABS basis set will be decontracted >>>

================================================================================
                                        WARNINGS
                       Please study these warnings very carefully!
================================================================================


WARNING: Post HF methods need fully converged wavefunctions
  ===> : Setting SCFConvForced true
         You can overwrite this default with %scf ConvForced false 


WARNING: MDCI localization with Augmented Hessian Foster-Boys
  ===> : Switching off randomization!

INFO   : the flag for use of the SHARK integral package has been found!


                       ****************************
                       * Single Point Calculation *
                       ****************************

---------------------------------
CARTESIAN COORDINATES (ANGSTROEM)
---------------------------------
  C     -0.046573    0.662925    0.000000
  H     -1.087867    0.977315    0.000000
  H      0.437742    1.073831    0.889854
  H      0.437742    1.073831   -0.889854
  O     -0.046573   -0.756341    0.000000
  H      0.864403   -1.051800    0.000000

----------------------------
CARTESIAN COORDINATES (A.U.)
----------------------------
  NO LB      ZA    FRAG     MASS         X           Y           Z
   0 C     6.0000    0    12.011   -0.088010    1.252747    0.000000
   1 H     1.0000    0     1.008   -2.055771    1.846858    0.000000
   2 H     1.0000    0     1.008    0.827212    2.029247    1.681580
   3 H     1.0000    0     1.008    0.827212    2.029247   -1.681580
   4 O     8.0000    0    15.999   -0.088010   -1.429277    0.000000
   5 H     1.0000    0     1.008    1.633485   -1.987614    0.000000

------------------------------------------------------------------------------
                   ___                                                        
                  /   \      - P O W E R E D   B Y -                         
                 /     \                                                     
                 |  |  |   _    _      __       _____    __    __             
                 |  |  |  | |  | |    /  \     |  _  \  |  |  /  |          
                  \  \/   | |  | |   /    \    | | | |  |  | /  /          
                 / \  \   | |__| |  /  /\  \   | |_| |  |  |/  /          
                |  |  |   |  __  | /  /__\  \  |    /   |      \           
                |  |  |   | |  | | |   __   |  |    \   |  |\   \          
                \     /   | |  | | |  |  |  |  | |\  \  |  | \   \       
                 \___/    |_|  |_| |__|  |__|  |_| \__\ |__|  \__/        
                                                                              
                      - O R C A' S   B I G   F R I E N D -                    
                                      &                                       
                       - I N T E G R A L  F E E D E R -                       
                                                                              
 v1 FN, 2020, v2 2021                                                         
------------------------------------------------------------------------------


Reading SHARK input file ch3oh-lw1x_Compound_1.SHARKINP.tmp ... ok
----------------------
SHARK INTEGRAL PACKAGE
----------------------

Number of atoms                             ...      6
Number of basis functions                   ...     56
Number of shells                            ...     28
Maximum angular momentum                    ...      2
Integral batch strategy                     ... SHARK/LIBINT Hybrid
RI-J (if used) integral strategy            ... SPLIT-RIJ (Revised 2003 algorithm where possible)
Printlevel                                  ...      1
Contraction scheme used                     ... SEGMENTED contraction
Coulomb Range Separation                    ... NOT USED
Exchange Range Separation                   ... NOT USED
Finite Nucleus Model                        ... NOT USED
Auxiliary Coulomb fitting basis             ... AVAILABLE
   # of basis functions in Aux-J            ...    345
   # of shells in Aux-J                     ...    135
   Maximum angular momentum in Aux-J        ...      3
Auxiliary J/K fitting basis                 ... NOT available
Auxiliary Correlation fitting basis         ... AVAILABLE
   # of basis functions in Aux-C            ...    345
   # of shells in Aux-C                     ...    135
   Maximum angular momentum in Aux-C        ...      3
Auxiliary 'external' fitting basis          ... NOT available
Integral threshold                          ...     1.000000e-10
Primitive cut-off                           ...     1.000000e-11
Primitive pair pre-selection threshold      ...     1.000000e-11

Calculating pre-screening integrals         ... done (  0.6 sec) Dimension = 28
Organizing shell pair data                  ... done (  0.1 sec)
Shell pair information
Total number of shell pairs                 ...       406
Shell pairs after pre-screening             ...       406
Total number of primitive shell pairs       ...      2476
Primitive shell pairs kept                  ...      2135
          la=0 lb=0:    136 shell pairs
          la=1 lb=0:    160 shell pairs
          la=1 lb=1:     55 shell pairs
          la=2 lb=0:     32 shell pairs
          la=2 lb=1:     20 shell pairs
          la=2 lb=2:      3 shell pairs

Calculating one electron integrals          ... done (  0.2 sec)
Calculating RI/J V-Matrix + Cholesky decomp.... done (  0.4 sec)
Calculating RI/C V-Matrix + Cholesky decomp.... done (  0.0 sec)
Calculating Nuclear repulsion               ... done (  0.0 sec) ENN=     40.355992333239 Eh

SHARK setup successfully completed in   1.6 seconds

Maximum memory used throughout the entire GTOINT-calculation: 12.1 MB

Diagonalization of the overlap matrix:
Smallest eigenvalue                        ... 4.916e-03
Time for diagonalization                   ...    0.349 sec
Threshold for overlap eigenvalues          ... 1.000e-08
Number of eigenvalues below threshold      ... 0
Time for construction of square roots      ...    0.044 sec
Total time needed                          ...    0.405 sec

Time for model grid setup =    0.467 sec

Loading Hartree-Fock densities                     ... done
Calculating cut-offs                               ... done
Initializing the effective Hamiltonian             ... done
Setting up the integral package (SHARK)            ... done
Starting the Coulomb interaction                   ... done (   0.3 sec)
Reading the grid                                   ... done
Mapping shells                                     ... done
Starting the XC term evaluation                    ... done (   0.1 sec)
Transforming the Hamiltonian                       ... done (   0.0 sec)
Diagonalizing the Hamiltonian                      ... done (   0.0 sec)
Back transforming the eigenvectors                 ... done (   0.0 sec)
Now organizing SCF variables                       ... done
--------------------
COSX GRID GENERATION
--------------------

GRIDX 1
-------
General Integration Accuracy     IntAcc      ... 4.020
Radial Grid Type                 RadialGrid  ... OptM3 with GC (2021)
Angular Grid (max. ang.)         AngularGrid ... 2 (Lebedev-110)
Angular grid pruning method      GridPruning ... 4 (adaptive)
Weight generation scheme         WeightScheme... Becke
Basis function cutoff            BFCut       ... 1.0000e-10
Integration weight cutoff        WCut        ... 1.0000e-14
Angular grids for H and He will be reduced by one unit
Partially contracted basis set               ... on
Rotationally invariant grid construction     ... off

Total number of grid points                  ...     7694
Total number of batches                      ...      123
Average number of points per batch           ...       62
Average number of grid points per atom       ...     1282
UseSFitting                                  ... on

GRIDX 2
-------
General Integration Accuracy     IntAcc      ... 4.338
Radial Grid Type                 RadialGrid  ... OptM3 with GC (2021)
Angular Grid (max. ang.)         AngularGrid ... 3 (Lebedev-194)
Angular grid pruning method      GridPruning ... 4 (adaptive)
Weight generation scheme         WeightScheme... Becke
Basis function cutoff            BFCut       ... 1.0000e-10
Integration weight cutoff        WCut        ... 1.0000e-14
Angular grids for H and He will be reduced by one unit
Partially contracted basis set               ... on
Rotationally invariant grid construction     ... off

Total number of grid points                  ...    16621
Total number of batches                      ...      263
Average number of points per batch           ...       63
Average number of grid points per atom       ...     2770
UseSFitting                                  ... on

GRIDX 3
-------
General Integration Accuracy     IntAcc      ... 4.871
Radial Grid Type                 RadialGrid  ... OptM3 with GC (2021)
Angular Grid (max. ang.)         AngularGrid ... 4 (Lebedev-302)
Angular grid pruning method      GridPruning ... 4 (adaptive)
Weight generation scheme         WeightScheme... Becke
Basis function cutoff            BFCut       ... 1.0000e-10
Integration weight cutoff        WCut        ... 1.0000e-14
Angular grids for H and He will be reduced by one unit
Partially contracted basis set               ... on
Rotationally invariant grid construction     ... off

Total number of grid points                  ...    32892
Total number of batches                      ...      516
Average number of points per batch           ...       63
Average number of grid points per atom       ...     5482
UseSFitting                                  ... on

Time for X-Grid setup             =    0.494 sec

 re-compute Schwartz prescreening matrix in partically contracted basis (1) ...done (   0.393 sec)
--------------
SCF ITERATIONS
--------------
ITER       Energy         Delta-E        Max-DP      RMS-DP      [F,P]     Damp
               ***  Starting incremental Fock matrix formation  ***
  0   -114.9557092568   0.000000000000 0.05473583  0.00272383  0.2462454 0.7000
  1   -114.9927572813  -0.037048024465 0.03859339  0.00202033  0.1498394 0.7000
                               ***Turning on DIIS***
  2   -115.0141432854  -0.021386004110 0.07597327  0.00416865  0.0852840 0.0000
  3   -114.8482006590   0.165942626417 0.02703970  0.00122733  0.0482618 0.0000
  4   -115.0536296342  -0.205428975249 0.00439836  0.00029478  0.0063074 0.0000
                      *** Initiating the SOSCF procedure ***
                           *** Shutting down DIIS ***
                      *** Re-Reading the Fockian *** 
                      *** Removing any level shift *** 
ITER      Energy       Delta-E        Grad      Rot      Max-DP    RMS-DP
  5   -115.05442906  -0.0007994294  0.001044  0.001044  0.001975  0.000131
               *** Restarting incremental Fock matrix formation ***
  6   -115.05715013  -0.0027210652  0.000361  0.000510  0.001157  0.000068
  7   -115.05715391  -0.0000037774  0.000172  0.000413  0.000769  0.000042
  8   -115.05715454  -0.0000006377  0.000049  0.000044  0.000121  0.000007
                 **** Energy Check signals convergence ****
              ***Rediagonalizing the Fockian in SOSCF/NRSCF***

               *****************************************************
               *                     SUCCESS                       *
               *           SCF CONVERGED AFTER   9 CYCLES          *
               *****************************************************

Old exchange energy                            =    -14.846016250 Eh
New exchange energy                            =    -14.846032772 Eh
Exchange energy change after final integration =     -0.000016523 Eh
Total energy after final integration           =   -115.057171114 Eh
Final COS-X integration done in                =     1.159 sec
Total Energy       :         -115.05717111 Eh           -3130.86480 eV
  Last Energy change         ...   -4.7855e-08  Tolerance :   1.0000e-06
  Last MAX-Density change    ...    2.2204e-15  Tolerance :   1.0000e-05
             **** THE GBW FILE WAS UPDATED (ch3oh-lw1x_Compound_1.gbw) ****
             **** DENSITY ch3oh-lw1x_Compound_1.scfp WAS UPDATED ****
             **** ENERGY FILE WAS UPDATED (ch3oh-lw1x_Compound_1.en.tmp) ****
             **** THE GBW FILE WAS UPDATED (ch3oh-lw1x_Compound_1.gbw) ****
             **** DENSITY ch3oh-lw1x_Compound_1.scfp WAS UPDATED ****
----------------
ORBITAL ENERGIES
----------------

  NO   OCC          E(Eh)            E(eV) 
   0   2.0000     -20.566732      -559.6492 
   1   2.0000     -11.279770      -306.9382 
   2   2.0000      -1.362787       -37.0833 
   3   2.0000      -0.928509       -25.2660 
   4   2.0000      -0.693470       -18.8703 
   5   2.0000      -0.620951       -16.8969 
   6   2.0000      -0.594131       -16.1671 
   7   2.0000      -0.504576       -13.7302 
   8   2.0000      -0.451562       -12.2876 
   9   0.0000       0.075901         2.0654 
  10   0.0000       0.085816         2.3352 
  11   0.0000       0.101217         2.7543 
  12   0.0000       0.101827         2.7708 
  13   0.0000       0.212848         5.7919 
  14   0.0000       0.233037         6.3412 
  15   0.0000       0.257595         7.0095 
  16   0.0000       0.296115         8.0577 
  17   0.0000       0.306729         8.3465 
  18   0.0000       0.335717         9.1353 
  19   0.0000       0.353281         9.6133 
  20   0.0000       0.384031        10.4500 
  21   0.0000       0.447143        12.1674 
  22   0.0000       0.706591        19.2273 
  23   0.0000       0.729005        19.8372 
  24   0.0000       0.818884        22.2830 
  25   0.0000       0.876971        23.8636 
  26   0.0000       0.881701        23.9923 
  27   0.0000       1.018886        27.7253 
  28   0.0000       1.026165        27.9234 
  29   0.0000       1.155888        31.4533 
  30   0.0000       1.186629        32.2898 
  31   0.0000       1.273645        34.6576 
  32   0.0000       1.437756        39.1233 
  33   0.0000       1.465223        39.8708 
  34   0.0000       1.534531        41.7567 
  35   0.0000       1.598907        43.5085 
  36   0.0000       1.661196        45.2034 
  37   0.0000       1.673335        45.5337 
  38   0.0000       1.866343        50.7858 
  39   0.0000       1.934714        52.6462 
  40   0.0000       1.982591        53.9490 
  41   0.0000       1.991462        54.1904 
  42   0.0000       2.059626        56.0453 
  43   0.0000       2.152661        58.5769 
  44   0.0000       2.301229        62.6196 
  45   0.0000       2.375205        64.6326 
  46   0.0000       2.425883        66.0116 
  47   0.0000       2.548322        69.3434 
  48   0.0000       2.758798        75.0707 
  49   0.0000       2.777897        75.5904 
  50   0.0000       2.817306        76.6628 
  51   0.0000       3.296231        89.6950 
  52   0.0000       3.388275        92.1997 
  53   0.0000       3.462175        94.2106 
  54   0.0000       3.609203        98.2114 
  55   0.0000       4.098287       111.5200 
Total SCF time: 0 days 0 hours 0 min 10 sec 

Maximum memory used throughout the entire SCF-calculation: 47.2 MB


------------------------------------------------------------------------------- 
                              ORCA-MATRIX DRIVEN CI                            
------------------------------------------------------------------------------- 


Wavefunction type
-----------------
Correlation treatment                      ...      CCSD     
Single excitations                         ... ON
Orbital optimization                       ... OFF
Calculation of Z vector                    ... OFF
Calculation of Brueckner orbitals          ... OFF
Perturbative triple excitations            ... ON
Calculation of F12 correction              ... ON
   Using RI for F12 correction             ... ON
   GSO occupation number cut-off           ... 0.000e+00
Frozen core treatment                      ... chemical core (4 el)
Reference Wavefunction                     ... RHF
  Internal Orbitals:     2 ...    8 (  7 MO's/ 14 electrons)
  Virtual  Orbitals:     9 ...   55 ( 47 MO's              )
Number of AO's                             ...     56
Number of electrons                        ...     18
Number of correlated electrons             ...     14

Algorithmic settings
--------------------
Integral transformation                    ... All integrals via the RI transformation
K(C) Formation                             ... RI-DLPNO
   PNO-Integral Storage                    ... ON DISK
   PNO occupation number cut-off           ... 1.000e-07
   Singles PNO occupation number cut-off   ... 3.000e-09
   PNO Mulliken prescreening cut-off       ... 1.000e-03
   Domain cut-off (Mulliken population)    ... 1.000e-03
   PNO Normalization                       ...    1
Maximum number of iterations               ...        50
Convergence tolerance (max. residuum)      ... 2.500e-05
Level shift for amplitude update           ... 2.000e-01
Maximum number of DIIS vectors             ...         7
DIIS turned on at iteration                ...         0
Damping before turning on DIIS             ...     0.500
Damping after turning on DIIS              ...     0.000
Pair specific amplitude update             ... OFF
Natural orbital iterations                 ... OFF
Perturbative natural orbital generation    ... OFF
Printlevel                                 ... 2

Singles Fock matrix elements calculated using PNOs.

Memory handling:
----------------
Maximum memory for working arrays          ...   1000 MB
Data storage in matrix containers          ... UNCOMPRESSED
Data type for integral storage             ... DOUBLE
In-Core Storage of quantities:
   Amplitudes+Sigma Vector      ... NO
   J+K operators                ... NO
   DIIS vectors                 ... NO
   3-external integrals         ... NO
   4-external integrals         ... NO

Localization treatment:
-----------------------
Localization option                        ...    6
Localization threshhold                    ... -1.0e+00
Using relative localization threshhold     ... 1.0e-08
Neglect threshold for strong pairs         ... 1.000e-05 Eh
Prescreening threshold for very weak pairs ... 1.000e-07 Eh

Initializing the integral package          ... done
Localizing the valence orbitals
------------------------------------------------------------------------------
                           ORCA ORBITAL LOCALIZATION
------------------------------------------------------------------------------

Input orbitals are from                  ... ch3oh-lw1x_Compound_1.gbw
Output orbitals are to                   ... ch3oh-lw1x_Compound_1.loc
Max. number of iterations                ... 128
Localizations seeded randomly            ... off
Convergence tolerance                    ... 1.000e-06
Using relative localization threshhold   ... 1.000e-08
Treshold for strong local MOs            ... 9.500e-01
Treshold for bond MOs                    ... 8.500e-01
Operator                                 ... 0
Orbital range for localization           ... 2 to 8
Localization criterion                   ... FOSTER-BOYS (AUGMENTED HESSIAN)
Doing the dipole integrals     ... o.k.
Initial value of the localization sum :    16.348112
ITERATION   0 : L=   23.2912830167 DL=  6.94e+00 (AVERGE_DL)=    0.5750019060 
ITERATION   1 : L=   24.0323131046 DL=  7.41e-01 (AVERGE_DL)=    0.1878487345 
ITERATION   2 : L=   24.0583778656 DL=  2.61e-02 (AVERGE_DL)=    0.0352303717 
ITERATION   3 : L=   24.0598049305 DL=  1.43e-03 (AVERGE_DL)=    0.0082435111 
ITERATION   4 : L=   24.0599062365 DL=  1.01e-04 (AVERGE_DL)=    0.0021963820 
ITERATION   5 : L=   24.0599148888 DL=  8.65e-06 (AVERGE_DL)=    0.0006418838 
ITERATION   6 : L=   24.0599155810 DL=  6.92e-07 (AVERGE_DL)=    0.0001815483 
LOCALIZATION SUM CONVERGED

------------------------------------------------------
AUGMENTED HESSIAN OPTIMIZATION OF FOSTER-BOYS ORBITALS
------------------------------------------------------

Spin operator:           0
Orbital window:          2 to 8
Number of iterations:    128
Gradient tolerance:      1.000e-06
Number of pairs:         21
Davidson threshold:      2000
Diagonalization method:  LAPACK
Iter:    0   L: 24.0599155810   Grad. norm: 6.553194e-04
   *** Likely close to a maximum now. ***
       Augmented Hessian eigenvalues:  1.13e-07 -1.53e+00 -3.70e+00 -5.31e+00 ... 
Iter:    1   L: 24.0599156375   Grad. norm: 3.922294e-08
LOCALIZATION HAS CONVERGED.

Eigenvalues of the Hessian:
  0 -1.529e+00
  1 -3.703e+00
  2 -5.313e+00
  3 -5.733e+00
  4 -7.688e+00
  5 -1.034e+01
  6 -1.745e+01
  7 -2.097e+01
  8 -2.155e+01
  9 -2.418e+01
    ...


------------------------------------------------------------------------------- 
                    LOCALIZED MOLECULAR ORBITAL COMPOSITIONS                   
------------------------------------------------------------------------------- 

The Mulliken populations for each LMO on each atom are computed
The LMO`s will be ordered according to atom index and type
  (A) Strongly localized MO`s have populations of >=0.950 on one atom
  (B) Two center bond orbitals have populations of >=0.850 on two atoms
  (C) Other MO`s are considered to be `delocalized`

FOUND  -   2 strongly local MO`s
       -   5 two center bond MO`s
       -   0 significantly delocalized MO`s

Rather strongly localized orbitals:
MO   3:   4O  -   1.015568
MO   2:   4O  -   1.015568
Bond-like localized orbitals:
MO   8:   5H  -   0.394636  and   4O  -   0.606789
MO   7:   4O  -   0.630699  and   0C  -   0.374700
MO   6:   3H  -   0.496163  and   0C  -   0.530728
MO   5:   2H  -   0.496163  and   0C  -   0.530728
MO   4:   1H  -   0.482405  and   0C  -   0.546898
Localized MO's were stored in: ch3oh-lw1x_Compound_1.loc

Localizing the core orbitals
------------------------------------------------------------------------------
                           ORCA ORBITAL LOCALIZATION
------------------------------------------------------------------------------

Input orbitals are from                  ... ch3oh-lw1x_Compound_1.loc
Output orbitals are to                   ... ch3oh-lw1x_Compound_1.loc
Max. number of iterations                ... 128
Localizations seeded randomly            ... off
Convergence tolerance                    ... 1.000e-06
Using relative localization threshhold   ... 1.000e-08
Treshold for strong local MOs            ... 9.500e-01
Treshold for bond MOs                    ... 8.500e-01
Operator                                 ... 0
Orbital range for localization           ... 0 to 1
Localization criterion                   ... FOSTER-BOYS (AUGMENTED HESSIAN)
Doing the dipole integrals     ... o.k.
Initial value of the localization sum :     3.627006
ITERATION   0 : L=    3.6270055973 DL=  4.02e-09 (AVERGE_DL)=    0.0000634090 
LOCALIZATION SUM CONVERGED

------------------------------------------------------
AUGMENTED HESSIAN OPTIMIZATION OF FOSTER-BOYS ORBITALS
------------------------------------------------------

Spin operator:           0
Orbital window:          0 to 1
Number of iterations:    128
Gradient tolerance:      1.000e-06
Number of pairs:         1
Davidson threshold:      2000
Diagonalization method:  LAPACK
Iter:    0   L: 3.6270055973   Grad. norm: 5.413526e-19
   *** Likely close to a maximum now. ***
       Augmented Hessian eigenvalues:  1.02e-38 -2.88e+01
Iter:    1   L: 3.6270055973   Grad. norm: 2.161462e-27
LOCALIZATION HAS CONVERGED.

Eigenvalues of the Hessian:
  0 -2.877e+01


------------------------------------------------------------------------------- 
                    LOCALIZED MOLECULAR ORBITAL COMPOSITIONS                   
------------------------------------------------------------------------------- 

The Mulliken populations for each LMO on each atom are computed
The LMO`s will be ordered according to atom index and type
  (A) Strongly localized MO`s have populations of >=0.950 on one atom
  (B) Two center bond orbitals have populations of >=0.850 on two atoms
  (C) Other MO`s are considered to be `delocalized`

FOUND  -   2 strongly local MO`s
       -   0 two center bond MO`s
       -   0 significantly delocalized MO`s

Rather strongly localized orbitals:
MO   1:   4O  -   1.000030
MO   0:   0C  -   0.999200
Localized MO's were stored in: ch3oh-lw1x_Compound_1.loc

Warning: reference  - re-canonicalizations have been set to INT 1 VIRT 1
Warning: internal orbitals are localized - no re-canonicalization of internal orbitals
Warning: UsePNO is turned on - no re-canonicalization of internal and virtual orbitals

--------------------------
CLOSED-SHELL FOCK OPERATOR
--------------------------

Restoring SHARK [2] ... ok
Entering RIJCOSX section for the Fock matrix
Trying to retrieve the full J-matrix              ... done
Updating the Fock matrix                          ... done
Making the frozen core Coulomb matrix             ... SHARKdone
Retrieving the full K-matrix                      ... done
Calculating the frozen core K-matrix              ... done
Updating the Fock matrix                          ... done
Time needed for Fock operator              ...            2.336 sec
Reference energy                           ...   -115.057153381

------------------------------
Initializing F12 data
------------------------------

Mapping basis set                  ... done
Dimension of the orbital basis set  = 56
Dimension of the CABS basis set     = 345
Dimension of the AUX basis set      = 345
Threshold for CABS orthogonalization = 1.000e-08
Will use an exponential correlation factor -Exp(-gamma r12)/gamma (gamma= 1.200) fit to 6 Gaussians 
Correlation factor:   
  NGauss  :          6      
  Gaussian expansion: 
    a(0)=     0.275538291  d(0)=    -0.219608291 
    a(1)=     1.140545861  d(1)=    -0.254494187 
    a(2)=     3.958256986  d(2)=    -0.154545985 
    a(3)=    13.126859124  d(3)=    -0.093273119 
    a(4)=    49.287410844  d(4)=    -0.057916694 
    a(5)=   272.920095267  d(5)=    -0.035942168 
Calculating one-electron matrices                       ... done (      0.1 sec)
Calculating pre-screening matrices:                     ...
       .... 1/r12 done          (      0.6 sec)
       .... f12/r12 done        (      0.1 sec)
       .... f12 done            (      0.1 sec)
       .... f12^2 done          (      0.1 sec)
       .... [f12,[T1,f12]] done (      0.1 sec)
                                                        ... done (      1.0 sec)
Making CABS spaces                                      ... done (      0.1 sec)
Calculating 2-index 2-center F12 integrals              ... 
Two index explicit correlation integrals  op=0          ... done (      0.1 sec) 
Two index explicit correlation integrals  op=1          ... done (      0.0 sec) 
Two index explicit correlation integrals  op=2          ... done (      0.0 sec) 
Two index explicit correlation integrals  op=3          ... done (      0.0 sec) 
Two index explicit correlation integrals  op=4          ... done (      0.0 sec) 
                                                            done (      0.2 sec)

--------------
DLPNO SETTINGS (2015 fully linear scaling implementation)
--------------

TCutMKN:           1.000e-03
TCutPAO:           1.000e-03
TCutPNO:           1.000e-07
TCutPNOSingles:    3.000e-09
TCutEN:            9.700e-01
TCutPAOExt:        1.000e-01
TCutPairs:         1.000e-05
TCutPre:           1.000e-07
TCutOSV:           1.000e-06
TCutDOij:          1.000e-05
TCutDO:            5.000e-03
TCutC:             1.000e-04
TCutCPAO:          1.000e-03
TCutCMO:           1.000e-03
TScaleDOMP2PreScr: 2.000e+00
TScaleMKNMP2PreScr:1.000e+01
TScalePNOMP2PreScr:1.000e+00
PAO overlap thresh 1.000e-08
Using PNOs for Singles Fock computation
Use new domains
Use fully linear algorithm
TCutTNO:           1.000e-09
TCutMP2Pairs:      1.000e-06
TCutDOStrong:      2.000e-03
TCutMKNStrong:     1.000e-02
TCutMKNWeak:       1.000e-01
TCutDOWeak:        4.000e-03
NTCutTNO:          1

--------------------------
Mulliken population of the LMOs            ... ok
Performing proximity check                 ... No problems found
Calculating differential overlap integrals ... ok

--------------------------
ELECTRON PAIR PRESCREENING
--------------------------

Dipole-based pair screening          .... used

   TCutDOij = 1.000000e-05
   TCutPre  = 1.000000e-07
   .... Finished loop over pairs
Total time spent in the prescreening                  ...     0.006 sec
sum of pair energies estimated for screened out pairs ...       0.000000000000 Eh
Thresholds for map construction and integral transformation for crude MP2:
   TCutMKN                    ...     1.0e-02
   TCutDO                     ...     1.0e-02
   TCutPairs                  ...     1.0e-05
   TCutPNO_CrudeMP2           ...     1.0e-07
   TCutPNOSingles_CrudeMP2    ...     3.0e-09
--------------------------------
LOCAL RI TRANSFORMATION (IAVPAO)
--------------------------------

Orbital window:       2 to 8
Number of PAOs:      56
Basis functions:     56 (28 shells)
Aux. functions:     345 (135 shells)
Use SHARK:           on

Processing maps (0.0 sec)
Average map sizes:
   Aux shells -> MOs               7.0
   Aux shells -> PAOs             56.0
   MOs        -> AO shells        28.0
   PAOs       -> AO shells        28.0

Calculating integrals (0.4 sec, 1.036 MB)
Sorting integrals (0.0 sec, 1.032 MB)
Total time for the integral transformation: 0.5 sec
--------------------------------
INITIAL GUESS AND PNO GENERATION
--------------------------------

PNO truncation parameters                   .... 
    PAOOverlapThresh   =        1.000e-08

    TCutPairs          =        1.000e-05
    TCutPNO            =        1.000e-07
    TCutPNOSingles     =        3.000e-09
    TCutMP2Pairs       =        1.000e-06
    TCutMKN            =        1.000e-02
    TCutDO             =        1.000e-02

Pair selection                          .... not used
Type of local MP2 treatment                 .... semi-local MP2
Strategy for PNO selection                  .... occupation number selection
Pair density normalization                  .... MP2 norm
Spin component scaling                      .... not used

   .... Finished loop over pairs
Making pair pair interaction lists          ... done

                       ===========================
                         28 OF   28 PAIRS ARE KEPT CCSD PAIRS
                          0 OF   28 PAIRS ARE KEPT MP2 PAIRS FOR (T)
                          0 OF   28 PAIRS ARE SKIPPED
                       ===========================

Total time spent in the initial guess                 ...     0.237 sec
SL-MP2 correlation energy (all non-screened pairs)    ...      -0.332660196201 Eh

Initial PNO correlation energy                        ...      -0.332622063399 Eh
sum of pair energies prescreened and skipped MP2 pairs...       0.000000000000 Eh
sum of pair energies of crude MP2 skipped pairs only  ...       0.000000000000 Eh
sum of MP2 pair energies for pairs that were not kept ...       0.000000000000 Eh
sum of PNO error estimates for the kept pairs         ...      -0.000038132802 Eh
                                                          --------------------
sum of all corrections                                         -0.000038132802
Initial total correlation energy                               -0.332660196201
Thresholds for map construction and integral transformation for fine MP2 and CCSD(T) calculation:
   TCutMKN   ...     1.0e-03
   TCutDO    ...     5.0e-03
   TCutPairs ...     1.0e-05
   TCutCMO   ...     1.0e-03
   TCutCPAO  ...     1.0e-03

Thresholds for map construction and integral transformation for strong Triples:
   TCutMKN   ...     1.0e-02
   TCutDO    ...     1.0e-02
   TCutCMO   ...     1.0e-03
   TCutCPAO  ...     1.0e-03

Thresholds for map construction and integral transformation for weak Triples:
   TCutMKN   ...     1.0e-01
   TCutDO    ...     2.0e-02
   TCutCMO   ...     1.0e-03
   TCutCPAO  ...     1.0e-03

--------------------------------
LOCAL RI TRANSFORMATION (IAVPAO)
--------------------------------

Orbital window:       2 to 8
Number of PAOs:      56
Basis functions:     56 (28 shells)
Aux. functions:     345 (135 shells)
Use SHARK:           on

Processing maps (0.0 sec)
Average map sizes:
   Aux shells -> MOs               7.0
   Aux shells -> PAOs             56.0
   MOs        -> AO shells        28.0
   PAOs       -> AO shells        28.0

Calculating integrals (0.2 sec, 1.036 MB)
Sorting integrals (0.0 sec, 1.032 MB)
Total time for the integral transformation: 0.2 sec
--------------------------------
INITIAL GUESS AND PNO GENERATION
--------------------------------

PNO truncation parameters                   .... 
    ScaleTCutPNO       =        1.000e-02
    PAOOverlapThresh   =        1.000e-08

    TCutPairs          =        1.000e-05
    TCutPNO            =        1.000e-07
    TCutPNOSingles     =        3.000e-09
    TCutMP2Pairs       =        1.000e-06
    TCutMKN            =        1.000e-03
    TCutDO             =        5.000e-03

Pair selection                          .... not used
Type of local MP2 treatment                 .... full local PMP2
Strategy for PNO selection                  .... occupation number selection
Pair density normalization                  .... MP2 norm
Spin component scaling                      .... not used

PASS-1: Formation of initial guess LMP2 amplitudes
Initial amplitudes guess done. Entering LMP2 iteration loop:
   Max. no of iterations          ...  50
   Energy convergence tolerance   ...    1.0e-07
   Residual convergence tolerance ...    5.0e-07
   Fock matrix cutoff             ...    1.0e-05 Eh
   DIIS convergence acceleration parameters:
        Max # vectors in DIIS     ... 7
        Start iteration of DIIS   ... 0
        Levelshift                ... 2.000e-01
        Damping factor 1          ... 5.000e-01
        Damping factor 2          ... 1.000e+00
   L-MP2 PNO cut-off              ...   1.0e-09
   L-MP2 PNO cut-off (core)       ...   1.0e-11
                           *** Turning on DIIS ***
LMP2-Iter=   0:  ELMP2= -0.339740571610  DE=   7.0e-03 RMAX=   5.9e-03
LMP2-Iter=   1:  ELMP2= -0.343421685536  DE=   3.7e-03 RMAX=   2.5e-03
LMP2-Iter=   2:  ELMP2= -0.343987425341  DE=   5.7e-04 RMAX=   4.3e-04
LMP2-Iter=   3:  ELMP2= -0.344049246646  DE=   6.2e-05 RMAX=   1.3e-04
LMP2-Iter=   4:  ELMP2= -0.344053609121  DE=   4.4e-06 RMAX=   1.5e-05
LMP2-Iter=   5:  ELMP2= -0.344053364880  DE=   2.4e-07 RMAX=   5.1e-06
LMP2-Iter=   6:  ELMP2= -0.344053329814  DE=   3.5e-08 RMAX=   6.4e-07
LMP2-Iter=   7:  ELMP2= -0.344053328770  DE=   1.0e-09 RMAX=   2.3e-07
LMP2-Iter=   8:  ELMP2= -0.344053335020  DE=   6.2e-09 RMAX=   3.3e-08 => CONVERGED
PASS-2: Formation of Pair natural orbitals
   .... Finished loop over pairs

 PNO Occupation Number Statistics: 
  | Av. % of trace(Dij) retained        ...  99.980499077691
  | sigma^2 in % of trace(Dij) retained ...   4.92e-04
  | Av. % of trace(Di) retained         ...  99.999899199466
  | sigma^2 in % of trace(Di) retained  ...   1.95e-09
 Distributions of % trace(Dij) recovered:
  |       >= 99.9  ...    28 (100.0 % of all pairs)
 Distributions of % trace(Di) recovered :
  |       >= 99.9  ...     7 (100.0 % of all I-pairs )

Making pair pair interaction lists          ... done

                       ===========================
                         28 OF   28 PAIRS ARE KEPT
                       ===========================

Total time spent in the initial guess                 ...     1.214 sec
L-MP2 correlation energy (all non-screened pairs)     ...      -0.344053335020 Eh
L-MP2 PNO error correction                            ...      -0.000000097071 Eh
                                                          --------------------
Initial total L-MP2 energy (non-screened pairs)       ...      -0.344053432091 Eh

Initial PNO correlation energy                        ...      -0.344020285693 Eh
sum of pair energies estimated for screened out pairs ...       0.000000000000 Eh
sum of MP2 pair energies for pairs that were not kept ...       0.000000000000 Eh
sum of PNO error estimates for the kept pairs         ...      -0.000033146399 Eh
                                                          --------------------
sum of all corrections                                         -0.000033146399
Initial total correlation energy                               -0.344053432091
Thresholds for map construction and integral transformation for fine MP2 and CCSD(T) calculation:
   TCutMKN   ...     1.0e-03
   TCutDO    ...     5.0e-03
   TCutPairs ...     1.0e-05
   TCutCMO   ...     1.0e-03
   TCutCPAO  ...     1.0e-03

Number of pairs in F12 (TCutDOF12 = 3.000e-04)        ...     28

Time for aux screen maps:            0.013
Time for maps after fine MP2:            0.022
-----------------------------
LOCAL RI TRANSFORMATION (IJV)
-----------------------------

Orbital window:       2 to 8
Basis functions:     56 (28 shells)
Aux. functions:     345 (135 shells)
Use SHARK:           on

Processing maps (0.0 sec)
Average map sizes:
   Aux shells -> MOs(i)            7.0
   Aux shells -> MOs(j)            7.0
   MOs        -> AO shells        28.0

Calculating integrals (0.2 sec, 0.133 MB)
Sorting integrals (0.0 sec, 0.129 MB)
Total time for the integral transformation: 0.2 sec
--------------------------------
LOCAL RI TRANSFORMATION (VABPAO)
--------------------------------

Number of PAOs:      56
Basis functions:     56 (28 shells)
Aux. functions:     345 (135 shells)
Use SHARK:           on

Processing maps (0.0 sec)
Average map sizes:
   Aux shells -> PAOs             56.0
   PAOs       -> AO shells        28.0

Calculating integrals (0.2 sec, 8.258 MB)
Finished


-------------------------------------
Pair Pair Term precalculation with     
RI-(ij|mn) and (im|jn) transformation  
ON THE FLY                             
-------------------------------------

   IBatch   1 (of   2)              ... done (    2.745 sec)
   IBatch   2 (of   2)              ... done (    0.270 sec)
Total EXT                           ...           3.018 sec

---------------------
RI-PNO TRANSFORMATION
---------------------

Total Number of PNOs                   ...   841
Average number of PNOs per pair        ...    30
Maximal number of PNOs per pair        ...    34
   #pairs with  1 -  5 PNOs   :    0
   #pairs with  6 - 10 PNOs   :    0
   #pairs with 11 - 15 PNOs   :    0
   #pairs with 16 - 20 PNOs   :    0
   #pairs with 21 - 25 PNOs   :    1
   #pairs with 26 - 30 PNOs   :   14
   #pairs with 31 - 35 PNOs   :   13
   #pairs with 36 - 40 PNOs   :    0
   #pairs with 41 - 45 PNOs   :    0
   #pairs with 46 - 50 PNOs   :    0

Generation of (ij|ab)[P] integrals            ... on
Generation of (ia|bc)[P],(ja|bc)[P] integrals ... on
Storage of 3 and 4 external integrals         ... on
Generation of ALL (ka|bc)[P] integrals        ... on
Keep RI integrals in memory                   ... off

Ibatch:  1 (of  1)
Starting 2-4 index PNO integral generation ... done

Timings:
Total PNO integral transformation time     ...          0.937 sec
Size of the 3-external file                ...         6 MB
Size of the 4-external file                ...        24 MB
Size of the IKJL file                      ...         0 MB
Size of the all 3-external file            ...        21 MB
Size of the 1-external file                ...         0 MB

Making pair/pair overlap matrices          ... done (    0.053 sec)
Size of the pair overlap file              ... 4 MB
Redoing the guess amplitudes               ... done (    0.040 sec)

-------------------------
FINAL STARTUP INFORMATION
-------------------------

E(0)                                       ...   -115.057153381
E(L-MP2)                                   ...     -0.344053432
E(L-MP2) including corrections             ...     -0.344053432
Initial E(tot)                             ...   -115.401206813
<T|T>                                      ...      0.091808207
Number of pairs included                   ... 28
Total number of pairs                      ... 28

------------------------------------------------
                  RHF COUPLED CLUSTER ITERATIONS
------------------------------------------------

Number of PNO amplitudes to be optimized   ...        25489
Number of non-PNO amplitudes               ...        61852
Untruncated number of regular amplitudes   ...        61852

Iter       E(tot)           E(Corr)          Delta-E          Residual     Time
  0   -115.389807599     -0.332621072      0.011432360      0.021471241    0.90
                           *** Turning on DIIS ***
  1   -115.411438310     -0.354251783     -0.021630711      0.007905515    0.84
  2   -115.422956348     -0.365769821     -0.011518039      0.001810382    0.85
  3   -115.424577297     -0.367390770     -0.001620949      0.000939745    0.84
  4   -115.425068155     -0.367881628     -0.000490858      0.000340175    0.85
  5   -115.425185353     -0.367998826     -0.000117198      0.000151614    0.85
  6   -115.425207499     -0.368020972     -0.000022146      0.000056359    0.87
  7   -115.425208819     -0.368022292     -0.000001321      0.000019619    0.86
               --- The Coupled-Cluster iterations have converged ---
Making OccT1 to AO map ... ok
3-index local transformation (OBS,OBS/AUX) for   op=0   ... done (      0.2 sec)
3-index local transformation (OBS,CABS/AUX) for  op=0   ... done (      0.3 sec)
3-index local transformation (OBS,OBS/AUX) for   op=1   ... done (      0.3 sec)
3-index local transformation (OBS,CABS/AUX) for  op=1   ... done (      0.8 sec)
3-index local transformation (OBS,OBS/AUX) for   op=2   ... done (      0.2 sec)
3-index local transformation (OBS,CABS/AUX) for  op=2   ... done (      0.5 sec)
3-index local transformation (OBS,OBS/AUX) for   op=3   ... done (      0.4 sec)
3-index local transformation (OBS,CABS/AUX) for  op=3   ... done (      1.3 sec)
3-index local transformation (OBS,OBS/AUX) for   op=4   ... done (      0.4 sec)
3-index local transformation (OBS,CABS/AUX) for  op=4   ... done (      1.3 sec)
3-index local transformation (OBS,OBS/AUX) of (pa|X)    ... done (      0.2 sec)
3-index local transformation (OBS_T1,OBS/AUX) for op=0  ... done (      0.1 sec)
3-index local transformation (OBS_T1,OBS/AUX) for op=1  ... done (      0.3 sec)
3-index local transformation (OBS_F,OBS/AUX) for op=2   ... done (      0.4 sec)
3-index local transformation (OBS_F,CABS/AUX)for op=2   ... done (      0.5 sec)
------------------------
RHF DLPNO F12 CORRECTION
------------------------

Doing SCF density matrices                              ... done (      0.0 sec)
Calculating RI Coulomb operators
Retrieving the Coulomb fitting basis                    ... done
       .... OBS/OBS done        (      0.1 sec)
       .... CABS/OBS done       (      0.2 sec)
       .... CABS/CABS done      (      0.4 sec)

F12 OBS GRIDX
-------------

General Integration Accuracy     IntAcc      ... 4.338
Radial Grid Type                 RadialGrid  ... OptM3 with GC (2021)
Angular Grid (max. ang.)         AngularGrid ... 3 (Lebedev-194)
Angular grid pruning method      GridPruning ... 5 (extended)
Weight generation scheme         WeightScheme... Becke
Basis function cutoff            BFCut       ... 1.0000e-10
Integration weight cutoff        WCut        ... 1.0000e-14
Angular grids for H and He will be reduced by one unit
Partially contracted basis set               ... on
Rotationally invariant grid construction     ... off

Total number of grid points                  ...    43318
Total number of batches                      ...      680
Average number of points per batch           ...       63
Average number of grid points per atom       ...     7220

F12 CABS GRIDX
--------------

General Integration Accuracy     IntAcc      ... 4.338
Radial Grid Type                 RadialGrid  ... OptM3 with GC (2021)
Angular Grid (max. ang.)         AngularGrid ... 3 (Lebedev-194)
Angular grid pruning method      GridPruning ... 5 (extended)
Weight generation scheme         WeightScheme... Becke
Basis function cutoff            BFCut       ... 1.0000e-10
Integration weight cutoff        WCut        ... 1.0000e-14
Angular grids for H and He will be reduced by one unit
Partially contracted basis set               ... on
Rotationally invariant grid construction     ... off

Total number of grid points                  ...    43318
Total number of batches                      ...      680
Average number of points per batch           ...       63
Average number of grid points per atom       ...     7220

Calculating COSX Exchange operators
       .... OBS/OBS done        (      2.8 sec)
       .... CABS/OBS done       (      2.8 sec)
       .... CABS/CABS done      (     15.2 sec)
Completing Fock operators                               ... done (      0.0 sec)
Calculating F12 intermediates (incore)                  ... 

WARNING (ORCA_TOOLS): CalcCholeskyLLoc() returned with error 1
                      Potentially linear dependencies in the aux basis!



WARNING (ORCA_TOOLS): CalcCholeskyLLoc() returned with error 1
                      Potentially linear dependencies in the aux basis!



WARNING (ORCA_TOOLS): CalcCholeskyLLoc() returned with error 1
                      Potentially linear dependencies in the aux basis!



WARNING (ORCA_TOOLS): CalcCholeskyLLoc() returned with error 1
                      Potentially linear dependencies in the aux basis!



WARNING (ORCA_TOOLS): CalcCholeskyLLoc() returned with error 1
                      Potentially linear dependencies in the aux basis!



WARNING (ORCA_TOOLS): CalcCholeskyLLoc() returned with error 1
                      Potentially linear dependencies in the aux basis!



WARNING (ORCA_TOOLS): CalcCholeskyLLoc() returned with error 1
                      Potentially linear dependencies in the aux basis!



WARNING (ORCA_TOOLS): CalcCholeskyLLoc() returned with error 1
                      Potentially linear dependencies in the aux basis!



WARNING (ORCA_TOOLS): CalcCholeskyLLoc() returned with error 1
                      Potentially linear dependencies in the aux basis!



WARNING (ORCA_TOOLS): CalcCholeskyLLoc() returned with error 1
                      Potentially linear dependencies in the aux basis!



WARNING (ORCA_TOOLS): CalcCholeskyLLoc() returned with error 1
                      Potentially linear dependencies in the aux basis!



WARNING (ORCA_TOOLS): CalcCholeskyLLoc() returned with error 1
                      Potentially linear dependencies in the aux basis!



WARNING (ORCA_TOOLS): CalcCholeskyLLoc() returned with error 1
                      Potentially linear dependencies in the aux basis!



WARNING (ORCA_TOOLS): CalcCholeskyLLoc() returned with error 1
                      Potentially linear dependencies in the aux basis!



WARNING (ORCA_TOOLS): CalcCholeskyLLoc() returned with error 1
                      Potentially linear dependencies in the aux basis!



WARNING (ORCA_TOOLS): CalcCholeskyLLoc() returned with error 1
                      Potentially linear dependencies in the aux basis!



WARNING (ORCA_TOOLS): CalcCholeskyLLoc() returned with error 1
                      Potentially linear dependencies in the aux basis!



WARNING (ORCA_TOOLS): CalcCholeskyLLoc() returned with error 1
                      Potentially linear dependencies in the aux basis!



WARNING (ORCA_TOOLS): CalcCholeskyLLoc() returned with error 1
                      Potentially linear dependencies in the aux basis!



WARNING (ORCA_TOOLS): CalcCholeskyLLoc() returned with error 1
                      Potentially linear dependencies in the aux basis!



WARNING (ORCA_TOOLS): CalcCholeskyLLoc() returned with error 1
                      Potentially linear dependencies in the aux basis!



WARNING (ORCA_TOOLS): CalcCholeskyLLoc() returned with error 1
                      Potentially linear dependencies in the aux basis!



WARNING (ORCA_TOOLS): CalcCholeskyLLoc() returned with error 1
                      Potentially linear dependencies in the aux basis!



WARNING (ORCA_TOOLS): CalcCholeskyLLoc() returned with error 1
                      Potentially linear dependencies in the aux basis!



WARNING (ORCA_TOOLS): CalcCholeskyLLoc() returned with error 1
                      Potentially linear dependencies in the aux basis!



WARNING (ORCA_TOOLS): CalcCholeskyLLoc() returned with error 1
                      Potentially linear dependencies in the aux basis!



WARNING (ORCA_TOOLS): CalcCholeskyLLoc() returned with error 1
                      Potentially linear dependencies in the aux basis!



WARNING (ORCA_TOOLS): CalcCholeskyLLoc() returned with error 1
                      Potentially linear dependencies in the aux basis!


Total T*B*T Contribution              =   0.113948354698

Total V*T MP2 Contribution            =  -0.241660445408

Total V*T CCSD without S Contribution =  -0.210236770781

Total V*T CCSD with S Contribution    =  -0.209627827722

DeltaEC_MP2                           =  -0.127712090709

DeltaEC_CCSD without S                =  -0.096288416083

DeltaEC_CCSD with S                   =  -0.095679473024
Total time of computation of intermediates                       (      4.2 sec)
Calculating correlation correction                      ... done (      0.0 sec)

F12 correction                   :  -0.095679473024
HF basis set correction          :  -0.038003133574
Sum of the two                   :  -0.133682606598

Total time for F12 correction    :    26.848 sec
  .... cleaning up and leaving F12-CCSD

----------------------
COUPLED CLUSTER ENERGY
----------------------

Uncorrected 0th order energy               ...   -115.057153381
F12-HF basis set correction                ...     -0.038003134
Corrected 0th order energy                 ...   -115.095156514

E(CORR)(strong-pairs)                      ...     -0.368022292
E(CORR)(weak-pairs)                        ...     -0.000033146
E(CORR)(corrected)                         ...     -0.368055439
Uncorrected correlation energy             ...     -0.368022292
F12-correction to the correlation energy   ...     -0.095679473
Final F12 correlation energy               ...     -0.463734912

E(TOT)-before F12 corrections              ...   -115.425208819
E(TOT)-after HF correction                 ...   -115.463211953
E(TOT)-after all F12 corrections           ...   -115.558891426

Singles Norm <S|S>**1/2                    ...      0.037792922  
T1 diagnostic                              ...      0.010100583  

------------------
LARGEST AMPLITUDES
------------------
   4-> 19   4-> 19       0.042560
   6-> 18   6-> 18       0.042016
   5-> 18   5-> 18       0.042016
   8-> 17   8-> 17       0.035711
   4-> 11   4-> 11       0.030577
   4-> 11   4-> 19       0.030386
   4-> 19   4-> 11       0.030386
   7-> 17   7-> 17       0.030206
   6-> 11   6-> 11       0.029644
   5-> 11   5-> 11       0.029644
   7-> 12   7-> 12       0.028018
   6-> 11   6-> 18       0.027329
   6-> 18   6-> 11       0.027329
   5-> 11   5-> 18       0.027329
   5-> 18   5-> 11       0.027329
   8-> 11   8-> 17       0.024292


-------------------------------------------
DLPNO BASED TRIPLES CORRECTION
-------------------------------------------

Singles multiplier          ...  1.000000
TCutTNO                     ... 1.000e-09
TCutMP2Pairs                ... 1.000e-06
TCutDOStrong                ... 1.000e-02
TCutMKNStrong               ... 1.000e-02
TCutDOWeak                  ... 2.000e-02
TCutMKNWeak                 ... 1.000e-01

Parameters used in iterative triples
TCutFock                    ... 1.000e-03
TCutWeak                    ... 1.000e-08
TCutWeakGuess               ... 6.000e-06
TCutIter                    ... 1.000e-03
TNOScaleS                   ... 1.000e+01
TNOScaleW                   ... 1.000e+02
ETol                        ... 1.000e-04

Fragment selection                          .... not used
Number of Triples that are to be computed   ...        77

 . . . . . . . . .
10% done  
20% done  
30% done  
40% done  
50% done  
60% done  
70% done  
80% done  
90% done               (      6.573 sec)

-------------------
Triples Iterations:
-------------------

The T1 Strong/Weak pair is = 48/29 

Iter        E(Triple)      Delta-E            Time
  0     0.000000000000    0.008058827981      6.80
  1    -0.008369582470    0.000310754489      4.73
  2    -0.008398808894    0.000029226424      4.35

------------------
TRIPLES CORRECTION
------------------

The Conventional (T0) is    -0.008071543721
The Truncated    (T0) is    -0.008058827981
The corrected     (T) is    -0.008411524634

Triples timings:
Total time for T0               ...     6.823 sec
Total time for Iterative (T)    ...     9.105 sec
Total time of overall (T)       ...    16.139 sec

Triples List generation         ...     0.000 sec
TNO generation                  ...     0.232 sec
Pair density generation         ...     0.000 sec
Look up tables                  ...     0.000 sec
Generating 3-index integrals    ...     0.872 sec
  Make 4-ind.int. from 3-ind.int...     0.683 sec
  Projecting amplitudes (D + S) ...     0.064 sec
  Downprojecting integrals      ...     0.601 sec
  Energy contr. (sum over a,b,c)...     3.808 sec
Fitting ET(->0)                 ...     0.000 sec

Everything after 3-index        ...     5.700 sec

Timing details:
 TNO integrals                  ...     1.458 sec
   Reading 3-index integrals    ...     0.017 sec
   Sorting integrals            ...     0.229 sec
       Sorting integrals 1      ...     0.000 sec
       Sorting integrals 2      ...     0.102 sec
       Sorting integrals 3      ...     0.034 sec
       Sorting integrals 4      ...     0.002 sec
       Sorting integrals 5      ...     0.005 sec
       Sorting integrals 6      ...     0.086 sec
   Calculating local VM**-1/2   ...     0.074 sec
   Orthogonal. integrals        ...     0.206 sec
   Multipl. 3-index integrals   ...     0.933 sec
   All concerning IRIab (w/TNO) ...     0.288 sec

 Calculate W0/W1                ...     0.541 sec
 W 3-ext contribution           ...     0.312 sec
 W 3-int contribution           ...     0.074 sec
 Sorting W                      ...     0.136 sec

 V exchange contribution        ...     1.298 sec

 Timings for Triples without generation
     of 3-index integrals       ...     5.700 sec
       0 weak pairs             ...     5.700 sec
       1 weak pair              ...     0.000 sec
       2 weak pairs             ...     0.000 sec
       3 weak pairs             ...     0.000 sec
  Extra time for extrapolation  ...     0.000 sec

Number of Triples   (0, 1, 2, 3 weak pairs; overall):     77       0       0       0  (    77)
Number of Atoms     (0, 1, 2, 3 weak pairs; overall):    6.0     0.0     0.0     0.0  (     6)
Number of PAOs      (0, 1, 2, 3 weak pairs; overall):   56.0     0.0     0.0     0.0  (    56)
Number of AuxFcns   (0, 1, 2, 3 weak pairs; overall):  280.7     0.0     0.0     0.0  (   345)
Number of TNOs      (0, 1, 2, 3 weak pairs         ):   45.1     0.0     0.0     0.0
Aver. Number of NTNO, Atoms, PAOs, AuxFcns / Triples:     77    45.1     6.0    56.0   280.7

Triples Correction (T)                     ...     -0.008411525
Final correlation energy (without F12)     ...     -0.376466963
Final correlation energy (with F12)        ...     -0.472146436
F12-E(CCSD)                                ...   -115.558891426
F12-E(CCSD(T))                             ...   -115.567302950



------------------------------------------------------------------------------- 
                                     TIMINGS                                   
------------------------------------------------------------------------------- 


Total execution time                   ...       70.996 sec

Localization of occupied MO's          ...        0.936 sec (  1.3%)
Fock Matrix Formation                  ...        2.336 sec (  3.3%)
Global overlap, Fock, MKN matrices     ...        0.273 sec (  0.4%)
Differential overlap integrals         ...        1.045 sec (  1.5%)
Organizing maps                        ...        0.056 sec (  0.1%)
RI 3-index integral generations        ...        1.005 sec (  1.4%)
RI-PNO integral transformation         ...        4.154 sec (  5.9%)
Initial Guess                          ...        1.507 sec (  2.1%)
DIIS Solver                            ...        0.441 sec (  0.6%)
State Vector Update                    ...        0.004 sec (  0.0%)
Sigma-vector construction              ...        6.741 sec (  9.5%)
  <D|H|D>(0-ext)                       ...        0.434 sec (  6.4% of sigma)
  <D|H|D>(2-ext Fock)                  ...        0.015 sec (  0.2% of sigma)
  <D|H|D>(2-ext)                       ...        0.781 sec ( 11.6% of sigma)
  <D|H|D>(4-ext)                       ...        0.733 sec ( 10.9% of sigma)
  <D|H|D>(4-ext-corr)                  ...        2.090 sec ( 31.0% of sigma)
  CCSD doubles correction              ...        0.120 sec (  1.8% of sigma)
  <S|H|S>                              ...        0.445 sec (  6.6% of sigma)
  <S|H|D>(1-ext)                       ...        0.156 sec (  2.3% of sigma)
  <D|H|S>(1-ext)                       ...        0.005 sec (  0.1% of sigma)
  <S|H|D>(3-ext)                       ...        0.086 sec (  1.3% of sigma)
  Fock-dressing                        ...        0.880 sec ( 13.1% of sigma)
  Singles amplitudes                   ...        0.053 sec (  0.8% of sigma)
  (ik|jl)-dressing                     ...        0.264 sec (  3.9% of sigma)
  (ij|ab),(ia|jb)-dressing             ...        0.562 sec (  8.3% of sigma)
  Pair energies                        ...        0.005 sec (  0.1% of sigma)
  Shift terms                          ...        0.003 sec (  0.0% of sigma)
Total Time for computing F12           ...       33.933 sec ( 47.8% of ALL)
Total Time for computing (T)           ...       16.149 sec ( 22.7% of ALL)


Maximum memory used throughout the entire MDCI-calculation: 976.5 MB

-------------------------   --------------------
FINAL SINGLE POINT ENERGY      -115.567302950491
-------------------------   --------------------


                            ***************************************
                            *     ORCA property calculations      *
                            ***************************************


  WARNING: The energy has been calculated at the MDCI level but the densities
           used in the property calculations are still SCF densities
           MDCI response densities have not been calculated 
           use %mdci Density linearized end
           or  %mdci Density unrelaxed end
           or  %mdci Density orbopt end

                                    ---------------------
                                    Active property flags
                                    ---------------------
   (+) Dipole Moment


------------------------------------------------------------------------------
                       ORCA ELECTRIC PROPERTIES CALCULATION
------------------------------------------------------------------------------

Dipole Moment Calculation                       ... on
Quadrupole Moment Calculation                   ... off
Polarizability Calculation                      ... off
GBWName                                         ... ch3oh-lw1x_Compound_1.gbw
Electron density                                ... ch3oh-lw1x_Compound_1.scfp
The origin for moment calculation is the CENTER OF MASS  = (-0.038174, -0.120816  0.000000)

-------------
DIPOLE MOMENT
-------------
                                X             Y             Z
Electronic contribution:     -0.07248      -1.69327      -0.00000
Nuclear contribution   :      0.68713       2.17469       0.00000
                        -----------------------------------------
Total Dipole Moment    :      0.61464       0.48142      -0.00000
                        -----------------------------------------
Magnitude (a.u.)       :      0.78074
Magnitude (Debye)      :      1.98448



--------------------
Rotational spectrum 
--------------------
 
Rotational constants in cm-1:     4.291519     0.828508     0.799607 
Rotational constants in MHz : 128656.504737 24838.043121 23971.603041 

 Dipole components along the rotational axes: 
x,y,z [a.u.] :    -0.447378    -0.639849    -0.000000 
x,y,z [Debye]:    -1.137145    -1.626367    -0.000000 

 

Timings for individual modules:

Sum of individual times         ...       87.595 sec (=   1.460 min)
GTO integral calculation        ...        3.487 sec (=   0.058 min)   4.0 %
SCF iterations                  ...       11.492 sec (=   0.192 min)  13.1 %
MDCI module                     ...       72.616 sec (=   1.210 min)  82.9 %


################################################################################


                                COMPOUND JOB  2 
Basename: ch3oh-lw1x_Compound_2
NOTE: please remember that MaxCore and PAL settings will be ignored.

################################################################################

================================================================================
                                       INPUT FILE
================================================================================
NAME = ch3oh-lw1x_Compound_2.inp
|  1>     ! DefGrid3 RIJCOSX TightPNO DLPNO-CCSD(T1)-F12 MiniPrint NoPop
|  2>     %Basis
|  3>       Basis "maug-cc-pV(T+d)Z"
|  4>       AuxJ  "AutoAux"
|  5>       AuxC  "AutoAux"
|  6>       CABS  "AutoAux"
|  7>     End
|  8> 
|  9>                          ****END OF INPUT****
================================================================================
Warning! AutoAux has not been tested for CABS - use at your own risk!
================================================================================

----- Orbital basis set information -----
Your calculation utilizes the basis: may-cc-pV(T+d)Z 
  E. Papajak, D. G. Truhlar, J. Chem. Theory Comput. 7, 10-18 (2011).

----- AuxJ basis set information -----
Your calculation utilizes the AutoAux generation procedure.
  G. L. Stoychev, A. A. Auer, F. Neese, J. Chem. Theory Comput. 13, 554 (2017)

----- AuxC basis set information -----
Your calculation utilizes the AutoAux generation procedure.
  G. L. Stoychev, A. A. Auer, F. Neese, J. Chem. Theory Comput. 13, 554 (2017)

----- CABS information -----
Your calculation utilizes the AutoAux generation procedure.
  G. L. Stoychev, A. A. Auer, F. Neese, J. Chem. Theory Comput. 13, 554 (2017)


                    <<< The CABS basis set will be decontracted >>>

================================================================================
                                        WARNINGS
                       Please study these warnings very carefully!
================================================================================


WARNING: Post HF methods need fully converged wavefunctions
  ===> : Setting SCFConvForced true
         You can overwrite this default with %scf ConvForced false 


WARNING: MDCI localization with Augmented Hessian Foster-Boys
  ===> : Switching off randomization!

INFO   : the flag for use of the SHARK integral package has been found!


                       ****************************
                       * Single Point Calculation *
                       ****************************

---------------------------------
CARTESIAN COORDINATES (ANGSTROEM)
---------------------------------
  C     -0.046573    0.662925    0.000000
  H     -1.087867    0.977315    0.000000
  H      0.437742    1.073831    0.889854
  H      0.437742    1.073831   -0.889854
  O     -0.046573   -0.756341    0.000000
  H      0.864403   -1.051800    0.000000

----------------------------
CARTESIAN COORDINATES (A.U.)
----------------------------
  NO LB      ZA    FRAG     MASS         X           Y           Z
   0 C     6.0000    0    12.011   -0.088010    1.252747    0.000000
   1 H     1.0000    0     1.008   -2.055771    1.846858    0.000000
   2 H     1.0000    0     1.008    0.827212    2.029247    1.681580
   3 H     1.0000    0     1.008    0.827212    2.029247   -1.681580
   4 O     8.0000    0    15.999   -0.088010   -1.429277    0.000000
   5 H     1.0000    0     1.008    1.633485   -1.987614    0.000000

------------------------------------------------------------------------------
                   ___                                                        
                  /   \      - P O W E R E D   B Y -                         
                 /     \                                                     
                 |  |  |   _    _      __       _____    __    __             
                 |  |  |  | |  | |    /  \     |  _  \  |  |  /  |          
                  \  \/   | |  | |   /    \    | | | |  |  | /  /          
                 / \  \   | |__| |  /  /\  \   | |_| |  |  |/  /          
                |  |  |   |  __  | /  /__\  \  |    /   |      \           
                |  |  |   | |  | | |   __   |  |    \   |  |\   \          
                \     /   | |  | | |  |  |  |  | |\  \  |  | \   \       
                 \___/    |_|  |_| |__|  |__|  |_| \__\ |__|  \__/        
                                                                              
                      - O R C A' S   B I G   F R I E N D -                    
                                      &                                       
                       - I N T E G R A L  F E E D E R -                       
                                                                              
 v1 FN, 2020, v2 2021                                                         
------------------------------------------------------------------------------


Reading SHARK input file ch3oh-lw1x_Compound_2.SHARKINP.tmp ... ok
----------------------
SHARK INTEGRAL PACKAGE
----------------------

Number of atoms                             ...      6
Number of basis functions                   ...    124
Number of shells                            ...     48
Maximum angular momentum                    ...      3
Integral batch strategy                     ... SHARK/LIBINT Hybrid
RI-J (if used) integral strategy            ... SPLIT-RIJ (Revised 2003 algorithm where possible)
Printlevel                                  ...      1
Contraction scheme used                     ... SEGMENTED contraction
Coulomb Range Separation                    ... NOT USED
Exchange Range Separation                   ... NOT USED
Finite Nucleus Model                        ... NOT USED
Auxiliary Coulomb fitting basis             ... AVAILABLE
   # of basis functions in Aux-J            ...    584
   # of shells in Aux-J                     ...    182
   Maximum angular momentum in Aux-J        ...      4
Auxiliary J/K fitting basis                 ... NOT available
Auxiliary Correlation fitting basis         ... AVAILABLE
   # of basis functions in Aux-C            ...    584
   # of shells in Aux-C                     ...    182
   Maximum angular momentum in Aux-C        ...      4
Auxiliary 'external' fitting basis          ... NOT available
Integral threshold                          ...     1.000000e-10
Primitive cut-off                           ...     1.000000e-11
Primitive pair pre-selection threshold      ...     1.000000e-11

Calculating pre-screening integrals         ... done (  0.3 sec) Dimension = 48
Organizing shell pair data                  ... done (  0.0 sec)
Shell pair information
Total number of shell pairs                 ...      1176
Shell pairs after pre-screening             ...      1176
Total number of primitive shell pairs       ...      4046
Primitive shell pairs kept                  ...      3615
          la=0 lb=0:    253 shell pairs
          la=1 lb=0:    352 shell pairs
          la=1 lb=1:    136 shell pairs
          la=2 lb=0:    176 shell pairs
          la=2 lb=1:    128 shell pairs
          la=2 lb=2:     36 shell pairs
          la=3 lb=0:     44 shell pairs
          la=3 lb=1:     32 shell pairs
          la=3 lb=2:     16 shell pairs
          la=3 lb=3:      3 shell pairs

Calculating one electron integrals          ... done (  0.0 sec)
[...]
----------------
ORBITAL ENERGIES
----------------

  NO   OCC          E(Eh)            E(eV) 
   0   2.0000     -20.563941      -559.5733 
   1   2.0000     -11.272418      -306.7381 
   2   2.0000      -1.355802       -36.8932 
   3   2.0000      -0.924002       -25.1434 
   4   2.0000      -0.688277       -18.7290 
   5   2.0000      -0.618206       -16.8222 
   6   2.0000      -0.590539       -16.0694 
   7   2.0000      -0.501596       -13.6491 
   8   2.0000      -0.448798       -12.2124 
   9   0.0000       0.138357         3.7649 
  10   0.0000       0.177943         4.8421 
  11   0.0000       0.220245         5.9932 
  12   0.0000       0.223800         6.0899 
  13   0.0000       0.287846         7.8327 
  14   0.0000       0.385615        10.4931 
  15   0.0000       0.403584        10.9821 
  16   0.0000       0.544303        14.8112 
  17   0.0000       0.580138        15.7864 
  18   0.0000       0.623431        16.9644 
  19   0.0000       0.623664        16.9708 
  20   0.0000       0.637048        17.3350 
  21   0.0000       0.687629        18.7113 
  22   0.0000       0.703098        19.1323 
  23   0.0000       0.720901        19.6167 
  24   0.0000       0.825806        22.4713 
  25   0.0000       0.864181        23.5156 
  26   0.0000       0.869567        23.6621 
  27   0.0000       0.927263        25.2321 
  28   0.0000       1.067836        29.0573 
  29   0.0000       1.100070        29.9344 
  30   0.0000       1.171392        31.8752 
  31   0.0000       1.185923        32.2706 
  32   0.0000       1.224882        33.3307 
  33   0.0000       1.261138        34.3173 
  34   0.0000       1.281851        34.8809 
  35   0.0000       1.328434        36.1485 
  36   0.0000       1.421502        38.6810 
  37   0.0000       1.482867        40.3509 
  38   0.0000       1.491272        40.5796 
  39   0.0000       1.515280        41.2329 
  40   0.0000       1.537283        41.8316 
  41   0.0000       1.554634        42.3037 
  42   0.0000       1.612994        43.8918 
  43   0.0000       2.086386        56.7735 
  44   0.0000       2.166430        58.9516 
  45   0.0000       2.184860        59.4531 
  46   0.0000       2.229794        60.6758 
  47   0.0000       2.286346        62.2146 
  48   0.0000       2.470274        67.2196 
  49   0.0000       2.484401        67.6040 
  50   0.0000       2.533488        68.9397 
  51   0.0000       2.680415        72.9378 
  52   0.0000       2.833758        77.1105 
  53   0.0000       2.924129        79.5696 
  54   0.0000       3.052093        83.0517 
  55   0.0000       3.109621        84.6171 
  56   0.0000       3.145027        85.5805 
  57   0.0000       3.195534        86.9549 
  58   0.0000       3.217721        87.5586 
  59   0.0000       3.240519        88.1790 
  60   0.0000       3.281725        89.3003 
  61   0.0000       3.309835        90.0652 
  62   0.0000       3.337156        90.8086 
  63   0.0000       3.381036        92.0027 
  64   0.0000       3.506332        95.4121 
  65   0.0000       3.596401        97.8630 
  66   0.0000       3.613345        98.3241 
  67   0.0000       3.678578       100.0992 
  68   0.0000       3.686875       100.3250 
  69   0.0000       3.734583       101.6232 
  70   0.0000       3.753945       102.1500 
  71   0.0000       3.806278       103.5741 
  72   0.0000       3.900848       106.1475 
  73   0.0000       3.943099       107.2972 
  74   0.0000       4.009008       109.0907 
  75   0.0000       4.029112       109.6377 
  76   0.0000       4.054746       110.3352 
  77   0.0000       4.118434       112.0683 
  78   0.0000       4.137911       112.5983 
  79   0.0000       4.242071       115.4326 
  80   0.0000       4.244349       115.4946 
  81   0.0000       4.284480       116.5866 
  82   0.0000       4.376724       119.0967 
  83   0.0000       4.393796       119.5613 
  84   0.0000       4.438376       120.7744 
  85   0.0000       4.535708       123.4229 
  86   0.0000       4.600744       125.1926 
  87   0.0000       4.604162       125.2856 
  88   0.0000       4.868195       132.4703 
  89   0.0000       4.952447       134.7629 
  90   0.0000       4.987994       135.7302 
  91   0.0000       5.057079       137.6101 
  92   0.0000       5.172268       140.7446 
  93   0.0000       5.291882       143.9994 
  94   0.0000       5.301341       144.2568 
  95   0.0000       5.408212       147.1649 
  96   0.0000       5.445230       148.1723 
  97   0.0000       5.530817       150.5012 
  98   0.0000       5.532088       150.5358 
  99   0.0000       5.645769       153.6292 
 100   0.0000       5.736833       156.1072 
 101   0.0000       5.928179       161.3140 
 102   0.0000       6.073651       165.2724 
 103   0.0000       6.138841       167.0464 
 104   0.0000       6.198282       168.6638 
 105   0.0000       6.233122       169.6119 
 106   0.0000       6.420998       174.7242 
 107   0.0000       6.839207       186.1043 
 108   0.0000       6.997091       190.4005 
 109   0.0000       7.118294       193.6986 
 110   0.0000       7.214083       196.3052 
 111   0.0000       7.249881       197.2793 
 112   0.0000       7.349768       199.9973 
 113   0.0000       7.517280       204.5556 
 114   0.0000       7.811482       212.5612 
 115   0.0000       8.335285       226.8146 
 116   0.0000      11.247376       306.0567 
 117   0.0000      11.466284       312.0134 
 118   0.0000      11.505030       313.0678 
 119   0.0000      13.301587       361.9546 
 120   0.0000      15.033861       409.0922 
 121   0.0000      15.069042       410.0495 
 122   0.0000      15.604925       424.6316 
 123   0.0000      15.648446       425.8159 
 124   0.0000      15.692682       427.0196 
 125   0.0000      19.084695       519.3210 
 126   0.0000      19.512700       530.9676 
 127   0.0000      20.161605       548.6252 
 128   0.0000      22.655989       616.5008 
 129   0.0000      30.109161       819.3119 
 130   0.0000      30.196385       821.6854 
 131   0.0000      30.198213       821.7352 
 132   0.0000      30.300496       824.5184 
 133   0.0000      30.560420       831.5913 
 134   0.0000      50.767421      1381.4518 
 135   0.0000      50.950679      1386.4385 
 136   0.0000      50.980408      1387.2474 
 137   0.0000      62.500220      1700.7174 
 138   0.0000      89.982057      2448.5363 
 139   0.0000      90.319537      2457.7196 
 140   0.0000      90.737993      2469.1063 
 141   0.0000     106.277255      2891.9511 
Total SCF time: 0 days 0 hours 0 min 12 sec 

Maximum memory used throughout the entire SCF-calculation: 80.8 MB

------------------------------------------------------------------------------
                                ORCA  MP2 
------------------------------------------------------------------------------

Freezing NCore=0 chemical core electrons
Initializing SHARK ... done


------------------------------------------------------------------------------
                           ORCA ORBITAL LOCALIZATION
------------------------------------------------------------------------------

Input orbitals are from                  ... ch3oh-lw1x_Compound_4.gbw
Output orbitals are to                   ... ch3oh-lw1x_Compound_4.loc
Max. number of iterations                ... 128
Localizations seeded randomly            ... off
Convergence tolerance                    ... 1.000e-06
Treshold for strong local MOs            ... 9.500e-01
Treshold for bond MOs                    ... 8.500e-01
Operator                                 ... 0
Orbital range for localization           ... 0 to 8
Localization criterion                   ... FOSTER-BOYS (AUGMENTED HESSIAN)
Doing the dipole integrals     ... o.k.
Initial value of the localization sum :    17.764384
ITERATION   0 : L=   25.8322184706 DL=  8.07e+00 (AVERGE_DL)=    0.4733988951 
ITERATION   1 : L=   27.5211540325 DL=  1.69e+00 (AVERGE_DL)=    0.2165984227 
ITERATION   2 : L=   27.6032016768 DL=  8.20e-02 (AVERGE_DL)=    0.0477399333 
ITERATION   3 : L=   27.6038952039 DL=  6.94e-04 (AVERGE_DL)=    0.0043891505 
ITERATION   4 : L=   27.6039595728 DL=  6.44e-05 (AVERGE_DL)=    0.0013371705 
ITERATION   5 : L=   27.6039659419 DL=  6.37e-06 (AVERGE_DL)=    0.0004206173 
ITERATION   6 : L=   27.6039665481 DL=  6.06e-07 (AVERGE_DL)=    0.0001297673 
LOCALIZATION SUM CONVERGED

------------------------------------------------------
AUGMENTED HESSIAN OPTIMIZATION OF FOSTER-BOYS ORBITALS
------------------------------------------------------

Spin operator:           0
Orbital window:          0 to 8
Number of iterations:    128
Gradient tolerance:      1.000e-06
Number of pairs:         36
Davidson threshold:      2000
Diagonalization method:  LAPACK
Iter:    0   L: 27.6039665481   Grad. norm: 4.750408e-04
   *** Likely close to a maximum now. ***
       Augmented Hessian eigenvalues:  1.21e-07 -9.33e-01 -1.37e+00 -1.41e+00 ... 
Iter:    1   L: 27.6039666087   Grad. norm: 6.055113e-08
LOCALIZATION HAS CONVERGED.

Eigenvalues of the Hessian:
  0 -9.330e-01
  1 -1.369e+00
  2 -1.406e+00
  3 -3.494e+00
  4 -3.508e+00
  5 -4.887e+00
  6 -5.118e+00
  7 -5.553e+00
  8 -7.238e+00
  9 -7.493e+00
    ...


------------------------------------------------------------------------------- 
                    LOCALIZED MOLECULAR ORBITAL COMPOSITIONS                   
------------------------------------------------------------------------------- 

The Mulliken populations for each LMO on each atom are computed
The LMO`s will be ordered according to atom index and type
  (A) Strongly localized MO`s have populations of >=0.950 on one atom
  (B) Two center bond orbitals have populations of >=0.850 on two atoms
  (C) Other MO`s are considered to be `delocalized`

FOUND  -   4 strongly local MO`s
       -   5 two center bond MO`s
       -   0 significantly delocalized MO`s

Rather strongly localized orbitals:
MO   3:   4O  -   0.984547
MO   2:   4O  -   0.984547
MO   1:   4O  -   1.000300
MO   0:   0C  -   1.002162
Bond-like localized orbitals:
MO   8:   5H  -   0.397481  and   4O  -   0.611610
MO   7:   4O  -   0.661042  and   0C  -   0.351462
MO   6:   3H  -   0.516150  and   0C  -   0.516606
MO   5:   2H  -   0.516150  and   0C  -   0.516606
MO   4:   1H  -   0.492661  and   0C  -   0.527696
Localized MO's were stored in: ch3oh-lw1x_Compound_4.loc



Calculating differential overlap integrals ... ok
Threshold for domain construction in prescreening: TCutDOPre = 3.0e-02

--------------------------
ELECTRON PAIR PRESCREENING
--------------------------

Dipole-based pair screening          .... used

   TCutDOij = 1.000000e-05
   TCutPre  = 1.000000e-06
   .... Finished loop over pairs
Total time spent in the prescreening                  ...     0.001 sec
sum of pair energies estimated for screened out pairs ...       0.000000000000 Eh

---------------------------
MAP CONSTRUCTION THRESHOLDS
---------------------------
    TCutMKN     ...     1.0e-03
    TCutDO      ...     5.0e-03
    TCutC(MO)   ...     1.0e-03
    TCutC(PAO)  ...     1.0e-03

--------------------------------
LOCAL RI TRANSFORMATION (IAVPAO)
--------------------------------

Orbital window:       0 to 8
Number of PAOs:     142
Basis functions:    142 (54 shells)
Aux. functions:     658 (190 shells)
Use SHARK:           on

Processing maps (0.0 sec)
Average map sizes:
   Aux shells -> MOs               9.0
   Aux shells -> PAOs            142.0
   MOs        -> AO shells        53.3
   PAOs       -> AO shells        54.0

Calculating integrals (0.3 sec, 6.423 MB)
Sorting integrals (0.0 sec, 6.416 MB)
Total time for the integral transformation: 0.4 sec

----------------------------
Local MP2 Energy Calculation
----------------------------
Number of orbital pairs included:     45
Truncation parameters:
    PAOOverlapThresh    =        1.000e-08
    TCutPNO             =        1.000e-09

Spin component scaling                      .... not used
MP2 energy scaling factor                   .... 1.000

Formation of semicanonical amplitudes.
 10% done.
 20% done.
 30% done.
 40% done.
 50% done.
 60% done.
 70% done.
 80% done.
 90% done.
100% done.

Finished the LMP2 guess in 1.5 sec.

Average number of PAOs per pair        142.0
Average number of nrPAOs per pair      133.0
Average number of PNOs per pair         78.4
Average number of AUX  per pair        611.0

Semicanonical MP2 energy:                   -0.515810409685 Eh
Semicanonical MP2 energy in PNO basis:      -0.515802625310 Eh

Initial amplitudes guess done. Entering DLPNO-MP2 iteration loop:
   Max. no of iterations          ...  100
   Energy convergence tolerance   ...    1.0e-06 Eh
   Residual convergence tolerance ...    5.0e-06
   Fock matrix cutoff             ...    1.0e-05 Eh
   Max # vectors in DIIS          ...  7
   Start iteration of DIIS        ...  0
   Levelshift                     ...  2.000e-01 Eh
   Damping before turning on DIIS ...  5.000e-01
   Damping after turning on DIIS  ...  0.000e+00

                           *** Turning on DIIS ***
Iter=   0:  ECORR= -0.524708569636  DE=   8.9e-03 RMAX=   3.7e-02
Iter=   1:  ECORR= -0.531350436554  DE=   6.6e-03 RMAX=   1.1e-02
Iter=   2:  ECORR= -0.532383866858  DE=   1.0e-03 RMAX=   3.0e-03
Iter=   3:  ECORR= -0.532623388579  DE=   2.4e-04 RMAX=   5.8e-04
Iter=   4:  ECORR= -0.532641162566  DE=   1.8e-05 RMAX=   6.4e-05
Iter=   5:  ECORR= -0.532641221769  DE=   5.9e-08 RMAX=   1.7e-05
Iter=   6:  ECORR= -0.532640963453  DE=   2.6e-07 RMAX=   2.6e-06 => CONVERGED

Finished the DLPNO-MP2 iterations in 2.0 sec.

LMP2 correlation energy (all non-screened pairs)      ...     -0.532640963453 Eh
Semicanonical PNO correction to energy                ...     -0.000007784376 Eh
Sum of pair energies estimated for screened out pairs ...      0.000000000000 Eh
                                                         -----------------------
Total:                                                ...     -0.532648747829 Eh

------------------------------------------------------
 DLPNO-MP2 CORRELATION ENERGY:      -0.532648747829 Eh
------------------------------------------------------

TIMINGS FOR DLPNO-MP2:
Localization                             ...        0.128 sec
Differential overlap integrals           ...        0.972 sec
Prescreening                             ...        0.155 sec
Map setup                                ...        0.001 sec
(ia|v) trafo                             ...        0.365 sec
Semicanonical amplitudes                 ...        1.342 sec
PNO construction                         ...        0.199 sec
DLPNO-MP2 iterations                     ...        1.983 sec
                                             ----------------
Total time                                          5.439 sec


---------------------------------------
MP2 TOTAL ENERGY:     -115.685202169 Eh
---------------------------------------

Maximum memory used throughout the entire MP2-calculation: 126.3 MB

-------------------------   --------------------
FINAL SINGLE POINT ENERGY      -115.685202169024
-------------------------   --------------------


                            ***************************************
                            *     ORCA property calculations      *
                            ***************************************


  WARNING: The energy has been calculated at the MP2 level but the densities
           used in the property calculations are still SCF densities
           MP2 response densities have not been calculated 
           use %mp2 Density relaxed end
           or  %mp2 Density unrelaxed end

                                    ---------------------
                                    Active property flags
                                    ---------------------
   (+) Dipole Moment


------------------------------------------------------------------------------
                       ORCA ELECTRIC PROPERTIES CALCULATION
------------------------------------------------------------------------------

Dipole Moment Calculation                       ... on
Quadrupole Moment Calculation                   ... off
Polarizability Calculation                      ... off
GBWName                                         ... ch3oh-lw1x_Compound_4.gbw
Electron density                                ... ch3oh-lw1x_Compound_4.scfp
The origin for moment calculation is the CENTER OF MASS  = (-0.038174, -0.120816  0.000000)

-------------
DIPOLE MOMENT
-------------
                                X             Y             Z
Electronic contribution:     -0.12300      -1.76314      -0.00000
Nuclear contribution   :      0.68713       2.17469       0.00000
                        -----------------------------------------
Total Dipole Moment    :      0.56413       0.41155      -0.00000
                        -----------------------------------------
Magnitude (a.u.)       :      0.69830
Magnitude (Debye)      :      1.77493



--------------------
Rotational spectrum 
--------------------
 
Rotational constants in cm-1:     4.291519     0.828508     0.799607 
Rotational constants in MHz : 128656.504737 24838.043121 23971.603041 

 Dipole components along the rotational axes: 
x,y,z [a.u.] :    -0.380346    -0.585622    -0.000000 
x,y,z [Debye]:    -0.966764    -1.488533    -0.000000 

 

Timings for individual modules:

Sum of individual times         ...       20.901 sec (=   0.348 min)
GTO integral calculation        ...        0.189 sec (=   0.003 min)   0.9 %
Relativistic integrals          ...        2.571 sec (=   0.043 min)  12.3 %
SCF iterations                  ...       12.648 sec (=   0.211 min)  60.5 %
MP2 module                      ...        5.493 sec (=   0.092 min)  26.3 %
================================================================================

----- Orbital basis set information -----
Your calculation utilizes the basis: def2-SVP
   F. Weigend and R. Ahlrichs, Phys. Chem. Chem. Phys. 7, 3297 (2005).



----------------------------------------------------------------------------------------------
                                        COMPOUND BLOCK                                        
                                     SUMMARY OF VARIABLES                                     
----------------------------------------------------------------------------------------------

Variable Name                                           Value             Evaluation String
-------------                                           -----             -----------------
HF_DZ                                    |            -115.09515651    |  
EC_DZ                                    |              -0.47214644    |  
CC_DZ                                    |              -0.46373491    |  EC_DZ-T_DZ
T_DZ                                     |              -0.00841152    |  
HF_TZ                                    |            -115.09951273    |  
EC_TZ                                    |              -0.49530710    |  
CC_TZ                                    |              -0.48031047    |  EC_TZ-T_TZ
T_TZ                                     |              -0.01499663    |  
HF_CBS                                   |            -115.10017339    |  HF_TZ-(HF_TZ-HF_DZ)*3^-5/(3^-5-2^-5)
CC_CBS                                   |              -0.48315101    |  CC_TZ-(CC_TZ-CC_DZ)*3^-4.7405/(3^-4.7405-2^-4.7405)
T_CBS                                    |              -0.01994175    |  T_TZ-(T_TZ-T_DZ)*3^-2.0879/(3^-2.0879-2^-2.0879)
MP_FC                                    |            -115.52497721    |  
MP_FU                                    |            -115.68520217    |  
MP_CV                                    |              -0.16022496    |  MP_FU-MP_FC
LW1X                                     |            -115.76349112    |  HF_CBS+CC_CBS+T_CBS+MP_CV
                             ****ORCA TERMINATED NORMALLY****
TOTAL RUN TIME: 0 days 0 hours 7 minutes 56 seconds 2 msec
