
                                 *****************
                                 * O   R   C   A *
                                 *****************

                                            #,                                       
                                            ###                                      
                                            ####                                     
                                            #####                                    
                                            ######                                   
                                           ########,                                 
                                     ,,################,,,,,                         
                               ,,#################################,,                 
                          ,,##########################################,,             
                       ,#########################################, ''#####,          
                    ,#############################################,,   '####,        
                  ,##################################################,,,,####,       
                ,###########''''           ''''###############################       
              ,#####''   ,,,,##########,,,,          '''####'''          '####       
            ,##' ,,,,###########################,,,                        '##       
           ' ,,###''''                  '''############,,,                           
         ,,##''                                '''############,,,,        ,,,,,,###''
      ,#''                                            '''#######################'''  
     '                                                          ''''####''''         
             ,#######,   #######,   ,#######,      ##                                
            ,#'     '#,  ##    ##  ,#'     '#,    #''#        ######   ,####,        
            ##       ##  ##   ,#'  ##            #'  '#       #        #'  '#        
            ##       ##  #######   ##           ,######,      #####,   #    #        
            '#,     ,#'  ##    ##  '#,     ,#' ,#      #,         ##   #,  ,#        
             '#######'   ##     ##  '#######'  #'      '#     #####' # '####'        



                  #######################################################
                  #                        -***-                        #
                  #          Department of theory and spectroscopy      #
                  #    Directorship and core code : Frank Neese         #
                  #        Max Planck Institute fuer Kohlenforschung    #
                  #                Kaiser Wilhelm Platz 1               #
                  #                 D-45470 Muelheim/Ruhr               #
                  #                      Germany                        #
                  #                                                     #
                  #                  All rights reserved                #
                  #                        -***-                        #
                  #######################################################


                         Program Version 5.0.1 -  RELEASE  -


 With contributions from (in alphabetic order):
   Daniel Aravena         : Magnetic Suceptibility
   Michael Atanasov       : Ab Initio Ligand Field Theory (pilot matlab implementation)
   Alexander A. Auer      : GIAO ZORA, VPT2 properties, NMR spectrum
   Ute Becker             : Parallelization
   Giovanni Bistoni       : ED, misc. LED, open-shell LED, HFLD
   Martin Brehm           : Molecular dynamics
   Dmytro Bykov           : SCF Hessian
   Vijay G. Chilkuri      : MRCI spin determinant printing, contributions to CSF-ICE
   Dipayan Datta          : RHF DLPNO-CCSD density
   Achintya Kumar Dutta   : EOM-CC, STEOM-CC
   Dmitry Ganyushin       : Spin-Orbit,Spin-Spin,Magnetic field MRCI
   Miquel Garcia          : C-PCM and meta-GGA Hessian, CC/C-PCM, Gaussian charge scheme
   Yang Guo               : DLPNO-NEVPT2, F12-NEVPT2, CIM, IAO-localization
   Andreas Hansen         : Spin unrestricted coupled pair/coupled cluster methods
   Benjamin Helmich-Paris : MC-RPA, TRAH-SCF, COSX integrals
   Lee Huntington         : MR-EOM, pCC
   Robert Izsak           : Overlap fitted RIJCOSX, COSX-SCS-MP3, EOM
   Marcus Kettner         : VPT2
   Christian Kollmar      : KDIIS, OOCD, Brueckner-CCSD(T), CCSD density, CASPT2, CASPT2-K
   Simone Kossmann        : Meta GGA functionals, TD-DFT gradient, OOMP2, MP2 Hessian
   Martin Krupicka        : Initial AUTO-CI
   Lucas Lang             : DCDCAS
   Marvin Lechner         : AUTO-CI (C++ implementation), FIC-MRCC
   Dagmar Lenk            : GEPOL surface, SMD
   Dimitrios Liakos       : Extrapolation schemes; Compound Job, initial MDCI parallelization
   Dimitrios Manganas     : Further ROCIS development; embedding schemes
   Dimitrios Pantazis     : SARC Basis sets
   Anastasios Papadopoulos: AUTO-CI, single reference methods and gradients
   Taras Petrenko         : DFT Hessian,TD-DFT gradient, ASA, ECA, R-Raman, ABS, FL, XAS/XES, NRVS
   Peter Pinski           : DLPNO-MP2, DLPNO-MP2 Gradient
   Christoph Reimann      : Effective Core Potentials
   Marius Retegan         : Local ZFS, SOC
   Christoph Riplinger    : Optimizer, TS searches, QM/MM, DLPNO-CCSD(T), (RO)-DLPNO pert. Triples
   Tobias Risthaus        : Range-separated hybrids, TD-DFT gradient, RPA, STAB
   Michael Roemelt        : Original ROCIS implementation
   Masaaki Saitow         : Open-shell DLPNO-CCSD energy and density
   Barbara Sandhoefer     : DKH picture change effects
   Avijit Sen             : IP-ROCIS
   Kantharuban Sivalingam : CASSCF convergence, NEVPT2, FIC-MRCI
   Bernardo de Souza      : ESD, SOC TD-DFT
   Georgi Stoychev        : AutoAux, RI-MP2 NMR, DLPNO-MP2 response
   Willem Van den Heuvel  : Paramagnetic NMR
   Boris Wezisla          : Elementary symmetry handling
   Frank Wennmohs         : Technical directorship


 We gratefully acknowledge several colleagues who have allowed us to
 interface, adapt or use parts of their codes:
   Stefan Grimme, W. Hujo, H. Kruse, P. Pracht,  : VdW corrections, initial TS optimization,
                  C. Bannwarth, S. Ehlert          DFT functionals, gCP, sTDA/sTD-DF
   Ed Valeev, F. Pavosevic, A. Kumar             : LibInt (2-el integral package), F12 methods
   Garnet Chan, S. Sharma, J. Yang, R. Olivares  : DMRG
   Ulf Ekstrom                                   : XCFun DFT Library
   Mihaly Kallay                                 : mrcc  (arbitrary order and MRCC methods)
   Jiri Pittner, Ondrej Demel                    : Mk-CCSD
   Frank Weinhold                                : gennbo (NPA and NBO analysis)
   Christopher J. Cramer and Donald G. Truhlar   : smd solvation model
   Lars Goerigk                                  : TD-DFT with DH, B97 family of functionals
   V. Asgeirsson, H. Jonsson                     : NEB implementation
   FAccTs GmbH                                   : IRC, NEB, NEB-TS, DLPNO-Multilevel, CI-OPT
                                                   MM, QMMM, 2- and 3-layer-ONIOM, Crystal-QMMM,
                                                   LR-CPCM, SF, NACMEs, symmetry and pop. for TD-DFT,
                                                   nearIR, NL-DFT gradient (VV10), updates on ESD,
                                                   ML-optimized integration grids
   S Lehtola, MJT Oliveira, MAL Marques          : LibXC Library
   Liviu Ungur et al                             : ANISO software


 Your calculation uses the libint2 library for the computation of 2-el integrals
 For citations please refer to: http://libint.valeyev.net

 Your ORCA version has been built with support for libXC version: 5.1.0
 For citations please refer to: https://tddft.org/programs/libxc/

 This ORCA versions uses:
   CBLAS   interface :  Fast vector & matrix operations
   LAPACKE interface :  Fast linear algebra routines
   SCALAPACK package :  Parallel linear algebra routines
   Shared memory     :  Shared parallel matrices
   BLAS/LAPACK       :  OpenBLAS 0.3.15  USE64BITINT DYNAMIC_ARCH NO_AFFINITY SkylakeX SINGLE_THREADED
        Core in use  :  SkylakeX
   Copyright (c) 2011-2014, The OpenBLAS Project




################################################################################


                                COMPOUND JOB MainJOB 
Basename: i_lw1x-p34_Compound_0

################################################################################

================================================================================
                                       INPUT FILE
================================================================================
NAME = i_lw1x-p34_Compound_0.inp
|  1> %Maxcore 2000
|  2>  %Pal nprocs 30 End
|  3>  
|  4>  * xyz -1 1
|  5>  I       -0.000000   -0.000000    0.000000
|  6>  *
|  7>  
|  8> 
|  9>                          ****END OF INPUT****
================================================================================
================================================================================

cite the ECPs for I  [Def2-ECP] as follows:
Ce-Yb(ecp-28): M. Dolg, H. Stoll, H.Preuss, J. Chem. Phys., 1989, 90, 1730-1734.
Y-Cd(ecp-28), Hf-Hg(ecp-46): D. Andrae,U. Haeussermann, M. Dolg, H. Stoll, H. Preuss, Theor. Chim. Acta, 1990, 77, 123-141.
In-Sb(ecp-28), Tl-Bi(ecp-46): B. Metz, H. Stoll, M. Dolg, J. Chem. Phys., 2000, 113, 2563-2569.
Te-Xe(ecp-28), Po-Rn(ecp-46): K. A. Peterson, D. Figgen, E. Goll, H. Stoll, M. Dolg, J. Chem. Phys., 2003, 119, 11113-11123.
Rb(ecp-28), Cs(ecp-46): T. Leininger, A. Nicklass, W. Kuechle, H. Stoll, M. Dolg, A. Bergner, Chem. Phys. Lett., 1996, 255, 274-280.
Sr(ecp-28), Ba(ecp-46): M. Kaupp, P. V. Schleyer, H. Stoll and H. Preuss, J. Chem. Phys., 1991, 94, 1360-1366.
La(ecp-46): M. Dolg, H. Stoll, A. Savin, H. Preuss, Theor. Chim. Acta, 1989, 75, 173-194.
Lu(ecp-28): X. Cao, M. Dolg, J. Chem. Phys., 2001, 115, 7348-7355.

ECP parameters for I  [Def2-ECP] have been obtained from:
TURBOMOLE (7.0.2)

----- Orbital basis set information -----
Your calculation utilizes the basis: def2-SVP
   F. Weigend and R. Ahlrichs, Phys. Chem. Chem. Phys. 7, 3297 (2005).



################################################################################


                                COMPOUND JOB  1 
Basename: i_lw1x-p34_Compound_1
NOTE: please remember that MaxCore and PAL settings will be ignored.

################################################################################

================================================================================
                                       INPUT FILE
================================================================================
NAME = i_lw1x-p34_Compound_1.inp
|  1>     ! DKH DefGrid3 RIJCOSX TightPNO DLPNO-MP2 MiniPrint NoPop
|  2>     %Basis
|  3>       Basis         "cc-pVTZ-DK"
|  4>       AuxJ          "AutoAux"
|  5>       AuxC          "AutoAux"
|  6>       CABS          "AutoAux"
|  7>       NewGTO     Ga "cc-pVTZ-DK" End
|  8>       NewAuxjGTO Ga "AutoAux" End
|  9>       NewAuxcGTO Ga "AutoAux" End
| 10>       NewCabsGTO Ga "AutoAux" End
| 11>       NewGTO     Ge "cc-pVTZ-DK" End
| 12>       NewAuxjGTO Ge "AutoAux" End
| 13>       NewAuxcGTO Ge "AutoAux" End
| 14>       NewCabsGTO Ge "AutoAux" End
| 15>       NewGTO     As "cc-pVTZ-DK" End
| 16>       NewAuxjGTO As "AutoAux" End
| 17>       NewAuxcGTO As "AutoAux" End
| 18>       NewCabsGTO As "AutoAux" End
| 19>       NewGTO     Se "cc-pVTZ-DK" End
| 20>       NewAuxjGTO Se "AutoAux" End
| 21>       NewAuxcGTO Se "AutoAux" End
| 22>       NewCabsGTO Se "AutoAux" End
| 23>       NewGTO     Br "cc-pVTZ-DK" End
| 24>       NewAuxjGTO Br "AutoAux" End
| 25>       NewAuxcGTO Br "AutoAux" End
| 26>       NewCabsGTO Br "AutoAux" End
| 27>       NewGTO     Kr "cc-pVTZ-DK" End
| 28>       NewAuxjGTO Kr "AutoAux" End
| 29>       NewAuxcGTO Kr "AutoAux" End
| 30>       NewCabsGTO Kr "AutoAux" End
| 31>       NewGTO     In "cc-pVTZ-DK" End
| 32>       NewAuxjGTO In "AutoAux" End
| 33>       NewAuxcGTO In "AutoAux" End
| 34>       NewCabsGTO In "AutoAux" End
| 35>       NewGTO     Sn "cc-pVTZ-DK" End
| 36>       NewAuxjGTO Sn "AutoAux" End
| 37>       NewAuxcGTO Sn "AutoAux" End
| 38>       NewCabsGTO Sn "AutoAux" End
| 39>       NewGTO     Sb "cc-pVTZ-DK" End
| 40>       NewAuxjGTO Sb "AutoAux" End
| 41>       NewAuxcGTO Sb "AutoAux" End
| 42>       NewCabsGTO Sb "AutoAux" End
| 43>       NewGTO     Te "cc-pVTZ-DK" End
| 44>       NewAuxjGTO Te "AutoAux" End
| 45>       NewAuxcGTO Te "AutoAux" End
| 46>       NewCabsGTO Te "AutoAux" End
| 47>       NewGTO     I  "cc-pVTZ-DK" End
| 48>       NewAuxjGTO I  "AutoAux" End
| 49>       NewAuxcGTO I  "AutoAux" End
| 50>       NewCabsGTO I  "AutoAux" End
| 51>       NewGTO     Xe "cc-pVTZ-DK" End
| 52>       NewAuxjGTO Xe "AutoAux" End
| 53>       NewAuxcGTO Xe "AutoAux" End
| 54>       NewCabsGTO Xe "AutoAux" End
| 55>     End
| 56> 
| 57>                          ****END OF INPUT****
================================================================================
Warning! AutoAux has not been tested for CABS - use at your own risk!
================================================================================

----- Orbital basis set information -----
Your calculation utilizes the basis: cc-pVTZ-DK 
    H-He, B-Ne : Obtained from the ccRepo (grant-hill.group.shef.ac.uk/ccrepo) Feb. 2017
                 W. A. de Jong, R. J. Harrison, D. A. Dixon, J. Chem. Phys. 114, 48 (2001)
  Li-Be, Na-Mg : Obtained from the Peterson Research Group Website (tyr0.chem.wsu.edu/~kipeters) Feb. 2017
                 B. P. Prascher, D. E. Woon, K. A. Peterson, T. H. Dunning, Jr., A. K. Wilson, Theor. Chem. Acc. 128, 69 (2011)
  Al-Ar, Ga-Kr : Obtained from the EMSL Basis Set Exchange (bse.pnl.gov) Feb. 2017
                 W. A. de Jong, R. J. Harrison, D. A. Dixon, J. Chem. Phys. 114, 48 (2001)
         Sc-Zn : Obtained from the ccRepo (grant-hill.group.shef.ac.uk/ccrepo) Feb. 2017
                 N. B. Balabanov, K. A. Peterson, J. Chem. Phys. 123, 064107 (2005)
                 N. B. Balabanov, K. A. Peterson, J. Chem. Phys. 125, 074110 (2006)
          Y-Pd : Obtained from the ccRepo (grant-hill.group.shef.ac.uk/ccrepo) Feb. 2017
                 K. A. Peterson, D. Figgen, M. Dolg, H. Stoll, J. Chem. Phys. 126, 124101 (2007)
  Ag-Cd, Au-Hg : Obtained from the ccRepo (grant-hill.group.shef.ac.uk/ccrepo) Feb. 2017
                 K. A. Peterson, C. Puzzarini, Theor. Chem. Acc. 114, 283 (2005)
  In-Xe, Tl-Rn : Obtained from the ccRepo (grant-hill.group.shef.ac.uk/ccrepo) Feb. 2017
                 D. H. Bross, K. A. Peterson, Theor. Chem. Acc. 133, 1434 (2014)
         Hf-Pt : Obtained from the ccRepo (grant-hill.group.shef.ac.uk/ccrepo) Feb. 2017
                 D. Figgen, K. A. Peterson, M. Dolg, H. Stoll, J. Chem. Phys. 130, 164108 (2009)

The basis set includes element-specific modifications.

----- AuxJ basis set information -----
Your calculation utilizes the AutoAux generation procedure.
  G. L. Stoychev, A. A. Auer, F. Neese, J. Chem. Theory Comput. 13, 554 (2017)

The basis set includes element-specific modifications.

----- AuxC basis set information -----
Your calculation utilizes the AutoAux generation procedure.
  G. L. Stoychev, A. A. Auer, F. Neese, J. Chem. Theory Comput. 13, 554 (2017)

The basis set includes element-specific modifications.

----- CABS information -----
Your calculation utilizes the AutoAux generation procedure.
  G. L. Stoychev, A. A. Auer, F. Neese, J. Chem. Theory Comput. 13, 554 (2017)

The basis set includes element-specific modifications.


                    <<< The CABS basis set will be decontracted >>>

================================================================================
                                        WARNINGS
                       Please study these warnings very carefully!
================================================================================


WARNING: No MP2 level density has been requested!
         To caclulate MP2 level properties use
         %mp2 Density relaxed end
         or
         %mp2 Density unrelaxed end

WARNING: Post HF methods need fully converged wavefunctions
  ===> : Setting SCFConvForced true
         You can overwrite this default with %scf ConvForced false 


INFO   : the flag for use of the SHARK integral package has been found!


                       ****************************
                       * Single Point Calculation *
                       ****************************

---------------------------------
CARTESIAN COORDINATES (ANGSTROEM)
---------------------------------
  I     -0.000000   -0.000000    0.000000

----------------------------
CARTESIAN COORDINATES (A.U.)
----------------------------
  NO LB      ZA    FRAG     MASS         X           Y           Z
   0 I    53.0000    0   126.900   -0.000000   -0.000000    0.000000



           ************************************************************
           *        Program running with 30 parallel MPI-processes    *
           *              working on a common directory               *
           ************************************************************
------------------------------------------------------------------------------
                   ___                                                        
                  /   \      - P O W E R E D   B Y -                         
                 /     \                                                     
                 |  |  |   _    _      __       _____    __    __             
                 |  |  |  | |  | |    /  \     |  _  \  |  |  /  |          
                  \  \/   | |  | |   /    \    | | | |  |  | /  /          
                 / \  \   | |__| |  /  /\  \   | |_| |  |  |/  /          
                |  |  |   |  __  | /  /__\  \  |    /   |      \           
                |  |  |   | |  | | |   __   |  |    \   |  |\   \          
                \     /   | |  | | |  |  |  |  | |\  \  |  | \   \       
                 \___/    |_|  |_| |__|  |__|  |_| \__\ |__|  \__/        
                                                                              
                      - O R C A' S   B I G   F R I E N D -                    
                                      &                                       
                       - I N T E G R A L  F E E D E R -                       
                                                                              
 v1 FN, 2020, v2 2021                                                         
------------------------------------------------------------------------------


Reading SHARK input file i_lw1x-p34_Compound_1.SHARKINP.tmp ... ok
----------------------
SHARK INTEGRAL PACKAGE
----------------------

Number of atoms                             ...      1
Number of basis functions                   ...     52
Number of shells                            ...     18
Maximum angular momentum                    ...      3
Integral batch strategy                     ... SHARK/LIBINT Hybrid
RI-J (if used) integral strategy            ... SPLIT-RIJ (Revised 2003 algorithm where possible)
Printlevel                                  ...      1
Contraction scheme used                     ... SEGMENTED contraction
Coulomb Range Separation                    ... NOT USED
Exchange Range Separation                   ... NOT USED
Finite Nucleus Model                        ... NOT USED
Auxiliary Coulomb fitting basis             ... AVAILABLE
   # of basis functions in Aux-J            ...    478
   # of shells in Aux-J                     ...     96
   Maximum angular momentum in Aux-J        ...      5
Auxiliary J/K fitting basis                 ... NOT available
Auxiliary Correlation fitting basis         ... AVAILABLE
   # of basis functions in Aux-C            ...    478
   # of shells in Aux-C                     ...     96
   Maximum angular momentum in Aux-C        ...      5
Auxiliary 'external' fitting basis          ... NOT available
Integral threshold                          ...     1.000000e-10
Primitive cut-off                           ...     1.000000e-11
Primitive pair pre-selection threshold      ...     1.000000e-11

Calculating pre-screening integrals         ... done (  5.2 sec) Dimension = 18
Organizing shell pair data                  ... done (  0.1 sec)
Shell pair information
Total number of shell pairs                 ...       171
Shell pairs after pre-screening             ...       171
Total number of primitive shell pairs       ...     30644
Primitive shell pairs kept                  ...     30642
          la=0 lb=0:     28 shell pairs
          la=1 lb=0:     42 shell pairs
          la=1 lb=1:     21 shell pairs
          la=2 lb=0:     28 shell pairs
          la=2 lb=1:     24 shell pairs
          la=2 lb=2:     10 shell pairs
          la=3 lb=0:      7 shell pairs
          la=3 lb=1:      6 shell pairs
          la=3 lb=2:      4 shell pairs
          la=3 lb=3:      1 shell pairs

Calculating one electron integrals          ... done (  0.0 sec)
Calculating RI/J V-Matrix + Cholesky decomp.... done (  0.1 sec)
Calculating RI/C V-Matrix + Cholesky decomp.... done (  0.1 sec)
Calculating Nuclear repulsion               ... done (  0.0 sec) ENN=      0.000000000000 Eh

SHARK setup successfully completed in   8.8 seconds

Maximum memory used throughout the entire GTOINT-calculation: 586.5 MB


           ************************************************************
           *        Program running with 30 parallel MPI-processes    *
           *              working on a common directory               *
           ************************************************************
------------------------------------------------------------------------------
                          ORCA RELATIVISTIC HAMILTONIAN
------------------------------------------------------------------------------

Relativistic Method            ... DKH
Order of DKH treatment         ...   2
Treatment of potential         ... V(e,N)
Eps parameter for DKH          ...   0.00000000010000
Nucleus model                  ... Point Nucleus
Speed of light used            ... 137.03598950000000


            ************************************************
            *        DOUGLAS-KROLL-HESS HAMILTONIAN        *
            *   Programmed by FN according to literature   *
            *        procedures. Special thanks to         *
            *       B.A. Hess, M. Reiher and A. Wolf       *
            *     University Erlangen-Nuernberg/Bonn       *
            ************************************************

Uncontracting the basis (second version)       ... done
Basis set overlap                              ... done
Number of contracted basis functions           ...   52
Number of uncontracted basis functions         ...  168
Initializing the DKH file                      ... done
Calculating the relativistic integrals         ... done
Storing DKH matrices                           ... done
Code used for DKH trafo                        ... ORCA
Computing the DKH transformation               ... done
Storing the transformation variables           ... done
Transforming V and pVp to p**2 space           ... done
First transformation of V and pVp              ... done
Second transformation of Veff                  ... done
Adding kinetic energy                          ... done
Back transformation of Veff to r-space         ... done
Recovering DKH matrices                        ... done
Recontracting the H-matrix (second version)    ... done
Computing the DKH correction to the H-matrix   ... done
Reading the original H-matrix                  ... done
Adding DKH correction to the H-matrix          ... done
Storing the new modified H-matrix              ... done

Maximum memory used throughout the entire REL-calculation: 46.1 MB


           ************************************************************
           *        Program running with 30 parallel MPI-processes    *
           *              working on a common directory               *
           ************************************************************

Diagonalization of the overlap matrix:
Smallest eigenvalue                        ... 6.942e-03
Time for diagonalization                   ...    0.012 sec
Threshold for overlap eigenvalues          ... 1.000e-08
Number of eigenvalues below threshold      ... 0
Time for construction of square roots      ...    0.018 sec
Total time needed                          ...    0.032 sec

Time for model grid setup =    0.110 sec

Loading DKH relativistic densities                 ... done
Calculating cut-offs                               ... done
Initializing the effective Hamiltonian             ... done
Setting up the integral package (SHARK)            ... done
Starting the Coulomb interaction                   ... done (   0.1 sec)
Reading the grid                                   ... done
Mapping shells                                     ... done
Starting the XC term evaluation                    ... done (   0.0 sec)
Transforming the Hamiltonian                       ... done (   0.0 sec)
Diagonalizing the Hamiltonian                      ... done (   0.0 sec)
Back transforming the eigenvectors                 ... done (   0.0 sec)
Now organizing SCF variables                       ... done
--------------------
COSX GRID GENERATION
--------------------

GRIDX 1
-------
General Integration Accuracy     IntAcc      ... 4.020
Radial Grid Type                 RadialGrid  ... OptM3 with GC (2021)
Angular Grid (max. ang.)         AngularGrid ... 2 (Lebedev-110)
Angular grid pruning method      GridPruning ... 4 (adaptive)
Weight generation scheme         WeightScheme... Becke
Basis function cutoff            BFCut       ... 1.0000e-10
Integration weight cutoff        WCut        ... 1.0000e-14
Angular grids for H and He will be reduced by one unit
Partially contracted basis set               ... on
Rotationally invariant grid construction     ... off

Total number of grid points                  ...     3266
Total number of batches                      ...       52
Average number of points per batch           ...       62
Average number of grid points per atom       ...     3266
UseSFitting                                  ... on

GRIDX 2
-------
General Integration Accuracy     IntAcc      ... 4.338
Radial Grid Type                 RadialGrid  ... OptM3 with GC (2021)
Angular Grid (max. ang.)         AngularGrid ... 3 (Lebedev-194)
Angular grid pruning method      GridPruning ... 4 (adaptive)
Weight generation scheme         WeightScheme... Becke
Basis function cutoff            BFCut       ... 1.0000e-10
Integration weight cutoff        WCut        ... 1.0000e-14
Angular grids for H and He will be reduced by one unit
Partially contracted basis set               ... on
Rotationally invariant grid construction     ... off

Total number of grid points                  ...     6724
Total number of batches                      ...      106
Average number of points per batch           ...       63
Average number of grid points per atom       ...     6724
UseSFitting                                  ... on

GRIDX 3
-------
General Integration Accuracy     IntAcc      ... 4.871
Radial Grid Type                 RadialGrid  ... OptM3 with GC (2021)
Angular Grid (max. ang.)         AngularGrid ... 4 (Lebedev-302)
Angular grid pruning method      GridPruning ... 4 (adaptive)
Weight generation scheme         WeightScheme... Becke
Basis function cutoff            BFCut       ... 1.0000e-10
Integration weight cutoff        WCut        ... 1.0000e-14
Angular grids for H and He will be reduced by one unit
Partially contracted basis set               ... on
Rotationally invariant grid construction     ... off

Total number of grid points                  ...    13076
Total number of batches                      ...      205
Average number of points per batch           ...       63
Average number of grid points per atom       ...    13076
UseSFitting                                  ... on

Time for X-Grid setup             =    0.459 sec

 re-compute Schwartz prescreening matrix in partically contracted basis (1) ...done (   0.105 sec)
--------------
SCF ITERATIONS
--------------
ITER       Energy         Delta-E        Max-DP      RMS-DP      [F,P]     Damp
               ***  Starting incremental Fock matrix formation  ***
  0  -7110.8570674139   0.000000000000 0.08571215  0.00356606  0.1240505 0.7000
  1  -7110.8814235969  -0.024356183019 0.06343743  0.00319172  0.0908111 0.7000
                               ***Turning on DIIS***
  2  -7110.8982627319  -0.016839134957 0.14107129  0.00781511  0.0615794 0.0000
  3  -7110.6176655378   0.280597194107 0.02894354  0.00115288  0.0269485 0.0000
                      *** Initiating the SOSCF procedure ***
                           *** Shutting down DIIS ***
                      *** Re-Reading the Fockian *** 
                      *** Removing any level shift *** 
ITER      Energy       Delta-E        Grad      Rot      Max-DP    RMS-DP
  4  -7110.97301424  -0.3553487013  0.003232  0.003232  0.008566  0.000372
               *** Restarting incremental Fock matrix formation ***
  5  -7110.93544125   0.0375729856  0.000782  0.000699  0.003105  0.000118
  6  -7110.93544471  -0.0000034532  0.000301  0.000365  0.000961  0.000043
  7  -7110.93544500  -0.0000002970  0.000043  0.000043  0.000113  0.000006
                 **** Energy Check signals convergence ****
              ***Rediagonalizing the Fockian in SOSCF/NRSCF***

               *****************************************************
               *                     SUCCESS                       *
               *           SCF CONVERGED AFTER   8 CYCLES          *
               *****************************************************

Old exchange energy                            =   -180.620669762 Eh
New exchange energy                            =   -180.620627224 Eh
Exchange energy change after final integration =      0.000042538 Eh
Total energy after final integration           =  -7110.935402464 Eh
Final COS-X integration done in                =     0.133 sec
Total Energy       :        -7110.93540246 Eh         -193498.38957 eV
  Last Energy change         ...    1.2815e-09  Tolerance :   1.0000e-06
  Last MAX-Density change    ...    4.8850e-15  Tolerance :   1.0000e-05
             **** THE GBW FILE WAS UPDATED (i_lw1x-p34_Compound_1.gbw) ****
             **** DENSITY i_lw1x-p34_Compound_1.scfp WAS UPDATED ****
             **** ENERGY FILE WAS UPDATED (i_lw1x-p34_Compound_1.en.tmp) ****
             **** THE GBW FILE WAS UPDATED (i_lw1x-p34_Compound_1.gbw) ****
             **** DENSITY i_lw1x-p34_Compound_1.scfp WAS UPDATED ****
----------------
ORBITAL ENERGIES
----------------

  NO   OCC          E(Eh)            E(eV) 
   0   2.0000   -1223.799685    -33301.2824 
   1   2.0000    -192.516299     -5238.6348 
   2   2.0000    -172.701316     -4699.4417 
   3   2.0000    -172.701316     -4699.4417 
   4   2.0000    -172.701316     -4699.4417 
   5   2.0000     -40.176723     -1093.2642 
   6   2.0000     -33.572228      -913.5468 
   7   2.0000     -33.572228      -913.5468 
   8   2.0000     -33.572228      -913.5468 
   9   2.0000     -23.614249      -642.5764 
  10   2.0000     -23.614249      -642.5764 
  11   2.0000     -23.614249      -642.5764 
  12   2.0000     -23.614249      -642.5764 
  13   2.0000     -23.614249      -642.5764 
  14   2.0000      -7.431643      -202.2253 
  15   2.0000      -5.270274      -143.4114 
  16   2.0000      -5.270274      -143.4114 
  17   2.0000      -5.270274      -143.4114 
  18   2.0000      -1.988862       -54.1197 
  19   2.0000      -1.988861       -54.1197 
  20   2.0000      -1.988861       -54.1197 
  21   2.0000      -1.988861       -54.1197 
  22   2.0000      -1.988861       -54.1197 
  23   2.0000      -0.590140       -16.0585 
  24   2.0000      -0.113041        -3.0760 
  25   2.0000      -0.113040        -3.0760 
  26   2.0000      -0.113040        -3.0760 
  27   0.0000       0.528455        14.3800 
  28   0.0000       0.599158        16.3039 
  29   0.0000       0.599158        16.3039 
  30   0.0000       0.599158        16.3039 
  31   0.0000       0.644210        17.5298 
  32   0.0000       0.644210        17.5298 
  33   0.0000       0.644210        17.5298 
  34   0.0000       0.644210        17.5298 
  35   0.0000       0.644210        17.5298 
  36   0.0000       1.435844        39.0713 
  37   0.0000       1.435844        39.0713 
  38   0.0000       1.435844        39.0713 
  39   0.0000       1.435844        39.0713 
  40   0.0000       1.435844        39.0713 
  41   0.0000       1.435844        39.0713 
  42   0.0000       1.435844        39.0713 
  43   0.0000       1.871970        50.9389 
  44   0.0000       1.871970        50.9389 
  45   0.0000       1.871970        50.9389 
  46   0.0000       1.871970        50.9389 
  47   0.0000       1.871971        50.9389 
  48   0.0000       2.118095        57.6363 
  49   0.0000       2.118095        57.6363 
  50   0.0000       2.118095        57.6363 
  51   0.0000       2.378854        64.7319 
Total SCF time: 0 days 0 hours 0 min 5 sec 

Maximum memory used throughout the entire SCF-calculation: 70.6 MB


           ************************************************************
           *        Program running with 30 parallel MPI-processes    *
           *              working on a common directory               *
           ************************************************************

------------------------------------------------------------------------------
                                ORCA  MP2 
------------------------------------------------------------------------------

Freezing NCore=36 chemical core electrons
Initializing SHARK ... done


------------------------------------------------------------------------------
                           ORCA ORBITAL LOCALIZATION
------------------------------------------------------------------------------

Input orbitals are from                  ... i_lw1x-p34_Compound_1.gbw
Output orbitals are to                   ... i_lw1x-p34_Compound_1.loc
Max. number of iterations                ... 128
Localizations seeded randomly            ... off
Convergence tolerance                    ... 1.000e-06
Treshold for strong local MOs            ... 9.500e-01
Treshold for bond MOs                    ... 8.500e-01
Operator                                 ... 0
Orbital range for localization           ... 18 to 26
Localization criterion                   ... FOSTER-BOYS (AUGMENTED HESSIAN)
Doing the dipole integrals     ... o.k.
Initial value of the localization sum :     0.000000
ITERATION   0 : L=    1.7820337534 DL=  1.78e+00 (AVERGE_DL)=    0.2224880616 
ITERATION   1 : L=    3.9529725416 DL=  2.17e+00 (AVERGE_DL)=    0.2455684329 
ITERATION   2 : L=    4.8417873397 DL=  8.89e-01 (AVERGE_DL)=    0.1571282914 
ITERATION   3 : L=    4.9830227173 DL=  1.41e-01 (AVERGE_DL)=    0.0626354926 
ITERATION   4 : L=    5.0370197268 DL=  5.40e-02 (AVERGE_DL)=    0.0387287610 
ITERATION   5 : L=    5.0955754575 DL=  5.86e-02 (AVERGE_DL)=    0.0403304857 
ITERATION   6 : L=    5.1618730820 DL=  6.63e-02 (AVERGE_DL)=    0.0429138752 
ITERATION   7 : L=    5.1888264362 DL=  2.70e-02 (AVERGE_DL)=    0.0273624612 
ITERATION   8 : L=    5.1947510976 DL=  5.92e-03 (AVERGE_DL)=    0.0128286371 
ITERATION   9 : L=    5.1958425084 DL=  1.09e-03 (AVERGE_DL)=    0.0055060844 
ITERATION  10 : L=    5.1960809624 DL=  2.38e-04 (AVERGE_DL)=    0.0025736596 
ITERATION  11 : L=    5.1961361284 DL=  5.52e-05 (AVERGE_DL)=    0.0012378970 
ITERATION  12 : L=    5.1961476683 DL=  1.15e-05 (AVERGE_DL)=    0.0005661731 
ITERATION  13 : L=    5.1961505243 DL=  2.86e-06 (AVERGE_DL)=    0.0002816630 
ITERATION  14 : L=    5.1961519768 DL=  1.45e-06 (AVERGE_DL)=    0.0002008632 
ITERATION  15 : L=    5.1961533295 DL=  1.35e-06 (AVERGE_DL)=    0.0001938451 
ITERATION  16 : L=    5.1961547813 DL=  1.45e-06 (AVERGE_DL)=    0.0002008140 
ITERATION  17 : L=    5.1961563181 DL=  1.54e-06 (AVERGE_DL)=    0.0002066169 
ITERATION  18 : L=    5.1961578815 DL=  1.56e-06 (AVERGE_DL)=    0.0002083932 
ITERATION  19 : L=    5.1961594071 DL=  1.53e-06 (AVERGE_DL)=    0.0002058584 
ITERATION  20 : L=    5.1961608384 DL=  1.43e-06 (AVERGE_DL)=    0.0001993924 
ITERATION  21 : L=    5.1961621338 DL=  1.30e-06 (AVERGE_DL)=    0.0001896948 
ITERATION  22 : L=    5.1961632732 DL=  1.14e-06 (AVERGE_DL)=    0.0001779005 
ITERATION  23 : L=    5.1961642542 DL=  9.81e-07 (AVERGE_DL)=    0.0001650798 
LOCALIZATION SUM CONVERGED

------------------------------------------------------
AUGMENTED HESSIAN OPTIMIZATION OF FOSTER-BOYS ORBITALS
------------------------------------------------------

Spin operator:           0
Orbital window:          18 to 26
Number of iterations:    128
Gradient tolerance:      1.000e-06
Number of pairs:         36
Davidson threshold:      2000
Diagonalization method:  LAPACK
Iter:    0   L: 5.1961642542   Grad. norm: 9.513225e-04
   *** Detected a saddle point. ***
       Augmented Hessian eigenvalues:  1.63e-05  1.04e-06  7.04e-07 -4.90e-07 ... 
Iter:    1   L: 5.1961664440   Grad. norm: 5.596191e-03
Iter:    2   L: 5.1961673166   Grad. norm: 2.489078e-03
Iter:    3   L: 5.1961689104   Grad. norm: 1.867267e-03
Iter:    4   L: 5.1961701312   Grad. norm: 1.710802e-03
Iter:    5   L: 5.1961705334   Grad. norm: 1.251368e-03
Iter:    6   L: 5.1961707107   Grad. norm: 1.018797e-03
Iter:    7   L: 5.1961709152   Grad. norm: 8.000430e-04
Iter:    8   L: 5.1961710419   Grad. norm: 6.792728e-04
Iter:    9   L: 5.1961711409   Grad. norm: 6.469902e-04
Iter:   10   L: 5.1961711834   Grad. norm: 6.711439e-04
Iter:   11   L: 5.1961712434   Grad. norm: 5.622405e-04
Iter:   12   L: 5.1961712584   Grad. norm: 5.658020e-04
Iter:   13   L: 5.1961712956   Grad. norm: 1.350435e-04
Iter:   14   L: 5.1961713018   Grad. norm: 3.033133e-05
Iter:   15   L: 5.1961713023   Grad. norm: 2.277998e-06
   *** Likely close to a maximum now. ***
       Augmented Hessian eigenvalues:  2.17e-12 -5.11e-07 -6.49e-07 -9.50e-07 ... 
Iter:   16   L: 5.1961713023   Grad. norm: 1.479856e-09
LOCALIZATION HAS CONVERGED.

Eigenvalues of the Hessian:
  0 -5.108e-07
  1 -6.485e-07
  2 -9.498e-07
  3 -2.936e-03
  4 -4.819e-03
  5 -5.793e-03
  6 -6.305e-03
  7 -1.753e-02
  8 -4.509e-02
  9 -6.211e-02
    ...


------------------------------------------------------------------------------- 
                    LOCALIZED MOLECULAR ORBITAL COMPOSITIONS                   
------------------------------------------------------------------------------- 

The Mulliken populations for each LMO on each atom are computed
The LMO`s will be ordered according to atom index and type
  (A) Strongly localized MO`s have populations of >=0.950 on one atom
  (B) Two center bond orbitals have populations of >=0.850 on two atoms
  (C) Other MO`s are considered to be `delocalized`

FOUND  -   9 strongly local MO`s
       -   0 two center bond MO`s
       -   0 significantly delocalized MO`s

Rather strongly localized orbitals:
MO  26:   0I  -   1.000000
MO  25:   0I  -   1.000000
MO  24:   0I  -   1.000000
MO  23:   0I  -   1.000000
MO  22:   0I  -   1.000000
MO  21:   0I  -   1.000000
MO  20:   0I  -   1.000000
MO  19:   0I  -   1.000000
MO  18:   0I  -   1.000000
Localized MO's were stored in: i_lw1x-p34_Compound_1.loc



Calculating differential overlap integrals ... ok
Threshold for domain construction in prescreening: TCutDOPre = 3.0e-02

--------------------------
ELECTRON PAIR PRESCREENING
--------------------------

Dipole-based pair screening          .... used

   TCutDOij = 1.000000e-05
   TCutPre  = 1.000000e-06
   .... Finished loop over pairs
Total time spent in the prescreening                  ...     0.037 sec
sum of pair energies estimated for screened out pairs ...       0.000000000000 Eh

---------------------------
MAP CONSTRUCTION THRESHOLDS
---------------------------
    TCutMKN     ...     1.0e-03
    TCutDO      ...     5.0e-03
    TCutC(MO)   ...     1.0e-03
    TCutC(PAO)  ...     1.0e-03

--------------------------------
LOCAL RI TRANSFORMATION (IAVPAO)
--------------------------------

Orbital window:      18 to 26
Number of PAOs:      52
Basis functions:     52 (18 shells)
Aux. functions:     478 (96 shells)
Use SHARK:           on

Processing maps (0.0 sec)
Average map sizes:
   Aux shells -> MOs               9.0
   Aux shells -> PAOs             52.0
   MOs        -> AO shells        18.0
   PAOs       -> AO shells        18.0

Calculating integrals (0.4 sec, 1.712 MB)
Sorting integrals (0.1 sec, 1.707 MB)
Total time for the integral transformation: 0.7 sec

----------------------------
Local MP2 Energy Calculation
----------------------------
Number of orbital pairs included:     45
Truncation parameters:
    PAOOverlapThresh    =        1.000e-08
    TCutPNO             =        1.000e-09

Spin component scaling                      .... not used
MP2 energy scaling factor                   .... 1.000

Formation of semicanonical amplitudes.
 10% done.
 20% done.
 30% done.
 40% done.
 50% done.
 60% done.
 70% done.
 80% done.
 90% done.
100% done.

Finished the LMP2 guess in 0.3 sec.

Average number of PAOs per pair         52.0
Average number of nrPAOs per pair       25.0
Average number of PNOs per pair         24.9
Average number of AUX  per pair        478.0

Semicanonical MP2 energy:                   -0.191174169388 Eh
Semicanonical MP2 energy in PNO basis:      -0.191174154048 Eh

Initial amplitudes guess done. Entering DLPNO-MP2 iteration loop:
   Max. no of iterations          ...  100
   Energy convergence tolerance   ...    1.0e-06 Eh
   Residual convergence tolerance ...    5.0e-06
   Fock matrix cutoff             ...    1.0e-05 Eh
   Max # vectors in DIIS          ...  7
   Start iteration of DIIS        ...  0
   Levelshift                     ...  2.000e-01 Eh
   Damping before turning on DIIS ...  5.000e-01
   Damping after turning on DIIS  ...  0.000e+00

                           *** Turning on DIIS ***
Iter=   0:  ECORR= -0.202010394275  DE=   1.1e-02 RMAX=   1.5e-02
Iter=   1:  ECORR= -0.210669401442  DE=   8.7e-03 RMAX=   4.8e-03
Iter=   2:  ECORR= -0.213038050159  DE=   2.4e-03 RMAX=   1.6e-03
Iter=   3:  ECORR= -0.213164711397  DE=   1.3e-04 RMAX=   1.6e-04
Iter=   4:  ECORR= -0.213169621584  DE=   4.9e-06 RMAX=   2.6e-05
Iter=   5:  ECORR= -0.213170187534  DE=   5.7e-07 RMAX=   6.0e-06
Iter=   6:  ECORR= -0.213170142063  DE=   4.5e-08 RMAX=   1.8e-06 => CONVERGED

Finished the DLPNO-MP2 iterations in 6.3 sec.

LMP2 correlation energy (all non-screened pairs)      ...     -0.213170142063 Eh
Semicanonical PNO correction to energy                ...     -0.000000015340 Eh
Sum of pair energies estimated for screened out pairs ...      0.000000000000 Eh
                                                         -----------------------
Total:                                                ...     -0.213170157403 Eh

------------------------------------------------------
 DLPNO-MP2 CORRELATION ENERGY:      -0.213170157403 Eh
------------------------------------------------------

TIMINGS FOR DLPNO-MP2:
Localization                             ...        0.799 sec
Differential overlap integrals           ...        1.038 sec
Prescreening                             ...        0.662 sec
Map setup                                ...        0.004 sec
(ia|v) trafo                             ...        0.677 sec
Semicanonical amplitudes                 ...        0.010 sec
PNO construction                         ...        0.002 sec
DLPNO-MP2 iterations                     ...        6.275 sec
                                             ----------------
Total time                                         11.373 sec


---------------------------------------
MP2 TOTAL ENERGY:    -7111.148572622 Eh
---------------------------------------

Maximum memory used throughout the entire MP2-calculation: 1253.6 MB

-------------------------   --------------------
FINAL SINGLE POINT ENERGY     -7111.148572621807
-------------------------   --------------------


                            ***************************************
                            *     ORCA property calculations      *
                            ***************************************


  WARNING: The energy has been calculated at the MP2 level but the densities
           used in the property calculations are still SCF densities
           MP2 response densities have not been calculated 
           use %mp2 Density relaxed end
           or  %mp2 Density unrelaxed end

                                    ---------------------
                                    Active property flags
                                    ---------------------
   (+) Dipole Moment


------------------------------------------------------------------------------
                       ORCA ELECTRIC PROPERTIES CALCULATION
------------------------------------------------------------------------------

Dipole Moment Calculation                       ... on
Quadrupole Moment Calculation                   ... off
Polarizability Calculation                      ... off
GBWName                                         ... i_lw1x-p34_Compound_1.gbw
Electron density                                ... i_lw1x-p34_Compound_1.scfp
The origin for moment calculation is the CENTER OF MASS  = ( 0.000000,  0.000000  0.000000)

-------------
DIPOLE MOMENT
-------------
                                X             Y             Z
Electronic contribution:     -0.00000       0.00001      -0.00000
Nuclear contribution   :      0.00000       0.00000       0.00000
                        -----------------------------------------
Total Dipole Moment    :     -0.00000       0.00001      -0.00000
                        -----------------------------------------
Magnitude (a.u.)       :      0.00001
Magnitude (Debye)      :      0.00001



--------------------
Rotational spectrum 
--------------------
 
Rotational constants in cm-1:     0.000000     0.000000     0.000000 
Rotational constants in MHz :     0.000000     0.000000     0.000000 

 Dipole components along the rotational axes: 
x,y,z [a.u.] :    -0.000001     0.000005    -0.000000 
x,y,z [Debye]:    -0.000003     0.000014    -0.000000 

 

Timings for individual modules:

Sum of individual times         ...       38.343 sec (=   0.639 min)
GTO integral calculation        ...       14.433 sec (=   0.241 min)  37.6 %
Relativistic integrals          ...        2.620 sec (=   0.044 min)   6.8 %
SCF iterations                  ...        7.429 sec (=   0.124 min)  19.4 %
MP2 module                      ...       13.860 sec (=   0.231 min)  36.1 %


################################################################################


                                COMPOUND JOB  2 
Basename: i_lw1x-p34_Compound_2
NOTE: please remember that MaxCore and PAL settings will be ignored.

################################################################################

================================================================================
                                       INPUT FILE
================================================================================
NAME = i_lw1x-p34_Compound_2.inp
|  1>     ! DefGrid3 RIJCOSX TightPNO DLPNO-MP2 MiniPrint NoPop
|  2>     %Basis
|  3>       Basis         "cc-pVTZ"
|  4>       AuxJ          "AutoAux"
|  5>       AuxC          "AutoAux"
|  6>       CABS          "AutoAux"
|  7>       NewECP     Ga "SK-MCDHF-RSC" End
|  8>       NewGTO     Ga "cc-pVTZ-PP"   End
|  9>       NewAuxjGTO Ga "AutoAux" End
| 10>       NewAuxcGTO Ga "AutoAux" End
| 11>       NewCabsGTO Ga "AutoAux" End
| 12>       NewECP     Ge "SK-MCDHF-RSC" End
| 13>       NewGTO     Ge "cc-pVTZ-PP"   End
| 14>       NewAuxjGTO Ge "AutoAux" End
| 15>       NewAuxcGTO Ge "AutoAux" End
| 16>       NewCabsGTO Ge "AutoAux" End
| 17>       NewECP     As "SK-MCDHF-RSC" End
| 18>       NewGTO     As "cc-pVTZ-PP"   End
| 19>       NewAuxjGTO As "AutoAux" End
| 20>       NewAuxcGTO As "AutoAux" End
| 21>       NewCabsGTO As "AutoAux" End
| 22>       NewECP     Se "SK-MCDHF-RSC" End
| 23>       NewGTO     Se "cc-pVTZ-PP"   End
| 24>       NewAuxjGTO Se "AutoAux" End
| 25>       NewAuxcGTO Se "AutoAux" End
| 26>       NewCabsGTO Se "AutoAux" End
| 27>       NewECP     Br "SK-MCDHF-RSC" End
| 28>       NewGTO     Br "cc-pVTZ-PP"   End
| 29>       NewAuxjGTO Br "AutoAux" End
| 30>       NewAuxcGTO Br "AutoAux" End
| 31>       NewCabsGTO Br "AutoAux" End
| 32>       NewECP     Kr "SK-MCDHF-RSC" End
| 33>       NewGTO     Kr "cc-pVTZ-PP"   End
| 34>       NewAuxjGTO Kr "AutoAux" End
| 35>       NewAuxcGTO Kr "AutoAux" End
| 36>       NewCabsGTO Kr "AutoAux" End
| 37>       NewECP     In "SK-MCDHF-RSC" End
| 38>       NewGTO     In "cc-pVTZ-PP"   End
| 39>       NewAuxjGTO In "AutoAux" End
| 40>       NewAuxcGTO In "AutoAux" End
| 41>       NewCabsGTO In "AutoAux" End
| 42>       NewECP     Sn "SK-MCDHF-RSC" End
| 43>       NewGTO     Sn "cc-pVTZ-PP"   End
| 44>       NewAuxjGTO Sn "AutoAux" End
| 45>       NewAuxcGTO Sn "AutoAux" End
| 46>       NewCabsGTO Sn "AutoAux" End
| 47>       NewECP     Sb "SK-MCDHF-RSC" End
| 48>       NewGTO     Sb "cc-pVTZ-PP"   End
| 49>       NewAuxjGTO Sb "AutoAux" End
| 50>       NewAuxcGTO Sb "AutoAux" End
| 51>       NewCabsGTO Sb "AutoAux" End
| 52>       NewECP     Te "SK-MCDHF-RSC" End
| 53>       NewGTO     Te "cc-pVTZ-PP"   End
| 54>       NewAuxjGTO Te "AutoAux" End
| 55>       NewAuxcGTO Te "AutoAux" End
| 56>       NewCabsGTO Te "AutoAux" End
| 57>       NewECP     I  "SK-MCDHF-RSC" End
| 58>       NewGTO     I  "cc-pVTZ-PP"   End
| 59>       NewAuxjGTO I  "AutoAux" End
| 60>       NewAuxcGTO I  "AutoAux" End
| 61>       NewCabsGTO I  "AutoAux" End
| 62>       NewECP     Xe "SK-MCDHF-RSC" End
| 63>       NewGTO     Xe "cc-pVTZ-PP"   End
| 64>       NewAuxjGTO Xe "AutoAux" End
| 65>       NewAuxcGTO Xe "AutoAux" End
| 66>       NewCabsGTO Xe "AutoAux" End
| 67>     End
| 68> 
| 69>                          ****END OF INPUT****
================================================================================
Warning! AutoAux has not been tested for CABS - use at your own risk!
================================================================================

cite the ECPs for I  [SK MCDHF RSC] as follows:
O: B. Metz and H. Stoll, private communication (KAP)
Tl: B. Metz, M. Schweizer, H. Stoll, M. Dolg, W. Liu, Theor. Chem. Acc. 104, 22 (2000)
Ga-As, In-Sb, Pb-Bi: B. Metz, H. Stoll, M. Dolg, J. Chem. Phys. 113, 2563 (2000)
Se-Kr, Te-Xe, Po-Rn: K.A. Peterson, D. Figgen, E. Goll, H. Stoll, and M. Dolg, J. Chem. Phys., in press (2003)
Cu-Zn, Ag-Cd, Au-Hg: D. Figgen, G. Rauhut, M. Dolg, and H. Stoll, Chem. Phys. 311, 227 (2005)
Y-Pd: K.A. Peterson, D. Figgen, M. Dolg, H. Stoll, J. Chem. Phys. 126, 124101 (2007)
I: K. A. Peterson, B. C. Shepler, D. Figgen, H. Stoll, J. Phys. Chem. A 110, 13877 (2006)
Hf-Pt: D. Figgen, K.A. Peterson, M. Dolg, H. Stoll, J. Chem. Phys. 130, 164108 (2009)
Ca, Sr, Ba, Ra: I.S. Lim, H. Stoll, P. Schwerdtfeger, J. Chem. Phys. 124, 034107 (2006)
U: M. Dolg, X. Cao, J. Phys. Chem. A 113, 12573 (2009)

ECP parameters for I  [SK MCDHF RSC] have been obtained from:
cc-pVDZ-PP  EMSL  Basis Set Exchange Library   4/7/16 5:27 AM
Ca, Sr, Ba, Ra: http://www.tc.uni-koeln.de/PP/index.en.html 3/16/17 1:54 PM


----- Orbital basis set information -----
Your calculation utilizes the basis: cc-pVTZ 
       H, B-Ne : Obtained from the ccRepo (grant-hill.group.shef.ac.uk/ccrepo) Feb. 2017
                 T. H. Dunning, Jr., J. Chem. Phys. 90, 1007 (1989)
            He : Obtained from the ccRepo (grant-hill.group.shef.ac.uk/ccrepo) Feb. 2017
                 D. E. Woon, T. H. Dunning, Jr., J. Chem. Phys. 100, 2975 (1994)
  Li-Be, Na-Mg : Obtained from the ccRepo (grant-hill.group.shef.ac.uk/ccrepo) Feb. 2017
                 B. P. Prascher, D. E. Woon, K. A. Peterson, T. H. Dunning, Jr., A. K. Wilson, Theor. Chem. Acc. 128, 69 (2011)
         Al-Ar : Obtained from the ccRepo (grant-hill.group.shef.ac.uk/ccrepo) Feb. 2017
                 D. E. Woon, T. H. Dunning, Jr., J. Chem. Phys. 98, 1358 (1993)
            Ca : Obtained from the Peterson Research Group Website (tyr0.chem.wsu.edu/~kipeters) Feb. 2017
                 J. Koput, K. A. Peterson, J. Phys. Chem. 106, 9595 (2002)
         Sc-Zn : Obtained from the ccRepo (grant-hill.group.shef.ac.uk/ccrepo) Feb. 2017
                 N. B. Balabanov, K. A. Peterson, J. Chem. Phys. 123, 064107 (2005)
                 N. B. Balabanov, K. A. Peterson, J. Chem. Phys. 125, 074110 (2006)
         Ga-Kr : Obtained from the ccRepo (grant-hill.group.shef.ac.uk/ccrepo) Feb. 2017
                 A. K. Wilson, D. E. Woon, K. A. Peterson, T. H. Dunning, Jr., J. Chem. Phys. 110, 7667 (1999)
             Y : Obtained from the ccRepo (grant-hill.group.shef.ac.uk/ccrepo) Feb. 2017
                 K. A. Peterson, D. Figgen, M. Dolg, H. Stoll, J. Chem. Phys. 126, 124101 (2007)
        Ag, Au : Obtained from the Peterson Research Group Website (tyr0.chem.wsu.edu/~kipeters) Feb. 2017
                 K. A. Peterson, C. Puzzarini, Theor. Chem. Acc. 114, 283 (2005)

The basis set includes element-specific modifications.

Your calculation utilizes the basis: cc-pVTZ-PP 
       Ca, Sr, Ba, Ra : Obtained from the Peterson Research Group Website (tyr0.chem.wsu.edu/~kipeters) Feb. 2017
                        H. Li, H. Feng, W. Sun, Y. Zhang, Q. Fan, K. A. Peterson, Y. Xie, H. F. Schaefer III, Mol. Phys. 111, 2292 (2013)
  Cu-Zn, Ag-Cd, Au-Hg : Obtained from the ccRepo (grant-hill.group.shef.ac.uk/ccrepo) Feb. 2017
                        K. A. Peterson, C. Puzzarini, Theor. Chem. Acc. 114, 283 (2005)
  Ga-Kr, In-Xe, Tl-Rn : Obtained from the ccRepo (grant-hill.group.shef.ac.uk/ccrepo) Feb. 2017
                        K. A. Peterson, J. Chem. Phys. 119, 11099 (2003)
                        K. A. Peterson, D. Figgen, E. Goll, H. Stoll, M. Dolg, J. Chem. Phys. 119, 11113 (2003)
                 Y-Pd : Obtained from the ccRepo (grant-hill.group.shef.ac.uk/ccrepo) Feb. 2017
                        K. A. Peterson, D. Figgen, M. Dolg, H. Stoll, J. Chem. Phys. 126, 124101 (2007)
                Hf-Pt : Obtained from the ccRepo (grant-hill.group.shef.ac.uk/ccrepo) Feb. 2017
                        D. Figgen, K. A. Peterson, M. Dolg, H. Stoll, J. Chem. Phys. 130, 164108 (2009)
                    U : Obtained from the ccRepo (grant-hill.group.shef.ac.uk/ccrepo) Feb. 2020
                        K. A. Peterson, J. Chem. Phys. 142, 074105 (2015)

----- AuxJ basis set information -----
Your calculation utilizes the AutoAux generation procedure.
  G. L. Stoychev, A. A. Auer, F. Neese, J. Chem. Theory Comput. 13, 554 (2017)

The basis set includes element-specific modifications.

----- AuxC basis set information -----
Your calculation utilizes the AutoAux generation procedure.
  G. L. Stoychev, A. A. Auer, F. Neese, J. Chem. Theory Comput. 13, 554 (2017)

The basis set includes element-specific modifications.

----- CABS information -----
Your calculation utilizes the AutoAux generation procedure.
  G. L. Stoychev, A. A. Auer, F. Neese, J. Chem. Theory Comput. 13, 554 (2017)

The basis set includes element-specific modifications.


                    <<< The CABS basis set will be decontracted >>>

================================================================================
                                        WARNINGS
                       Please study these warnings very carefully!
================================================================================


WARNING: No MP2 level density has been requested!
         To caclulate MP2 level properties use
         %mp2 Density relaxed end
         or
         %mp2 Density unrelaxed end

WARNING: Post HF methods need fully converged wavefunctions
  ===> : Setting SCFConvForced true
         You can overwrite this default with %scf ConvForced false 


INFO   : the flag for use of the SHARK integral package has been found!


                       ****************************
                       * Single Point Calculation *
                       ****************************

---------------------------------
CARTESIAN COORDINATES (ANGSTROEM)
---------------------------------
  I     -0.000000   -0.000000    0.000000

----------------------------
CARTESIAN COORDINATES (A.U.)
----------------------------
  NO LB      ZA    FRAG     MASS         X           Y           Z
   0 I    25.0000*   0   126.900   -0.000000   -0.000000    0.000000
* core charge reduced due to ECP



           ************************************************************
           *        Program running with 30 parallel MPI-processes    *
           *              working on a common directory               *
           ************************************************************
------------------------------------------------------------------------------
                   ___                                                        
                  /   \      - P O W E R E D   B Y -                         
                 /     \                                                     
                 |  |  |   _    _      __       _____    __    __             
                 |  |  |  | |  | |    /  \     |  _  \  |  |  /  |          
                  \  \/   | |  | |   /    \    | | | |  |  | /  /          
                 / \  \   | |__| |  /  /\  \   | |_| |  |  |/  /          
                |  |  |   |  __  | /  /__\  \  |    /   |      \           
                |  |  |   | |  | | |   __   |  |    \   |  |\   \          
                \     /   | |  | | |  |  |  |  | |\  \  |  | \   \       
                 \___/    |_|  |_| |__|  |__|  |_| \__\ |__|  \__/        
                                                                              
                      - O R C A' S   B I G   F R I E N D -                    
                                      &                                       
                       - I N T E G R A L  F E E D E R -                       
                                                                              
 v1 FN, 2020, v2 2021                                                         
------------------------------------------------------------------------------


Reading SHARK input file i_lw1x-p34_Compound_2.SHARKINP.tmp ... ok
----------------------
SHARK INTEGRAL PACKAGE
----------------------

Number of atoms                             ...      1
Number of basis functions                   ...     39
Number of shells                            ...     13
Maximum angular momentum                    ...      3
Integral batch strategy                     ... SHARK/LIBINT Hybrid
RI-J (if used) integral strategy            ... SPLIT-RIJ (Revised 2003 algorithm where possible)
Printlevel                                  ...      1
Contraction scheme used                     ... SEGMENTED contraction
Coulomb Range Separation                    ... NOT USED
Exchange Range Separation                   ... NOT USED
Finite Nucleus Model                        ... NOT USED
Auxiliary Coulomb fitting basis             ... AVAILABLE
   # of basis functions in Aux-J            ...    260
   # of shells in Aux-J                     ...     52
   Maximum angular momentum in Aux-J        ...      5
Auxiliary J/K fitting basis                 ... NOT available
Auxiliary Correlation fitting basis         ... AVAILABLE
   # of basis functions in Aux-C            ...    260
   # of shells in Aux-C                     ...     52
   Maximum angular momentum in Aux-C        ...      5
Auxiliary 'external' fitting basis          ... NOT available
Integral threshold                          ...     1.000000e-10
Primitive cut-off                           ...     1.000000e-11
Primitive pair pre-selection threshold      ...     1.000000e-11

Calculating pre-screening integrals         ... done (  0.1 sec) Dimension = 13
Organizing shell pair data                  ... done (  0.0 sec)
Shell pair information
Total number of shell pairs                 ...        91
Shell pairs after pre-screening             ...        91
Total number of primitive shell pairs       ...      1491
Primitive shell pairs kept                  ...      1491
          la=0 lb=0:     15 shell pairs
          la=1 lb=0:     20 shell pairs
          la=1 lb=1:     10 shell pairs
          la=2 lb=0:     15 shell pairs
          la=2 lb=1:     12 shell pairs
          la=2 lb=2:      6 shell pairs
          la=3 lb=0:      5 shell pairs
          la=3 lb=1:      4 shell pairs
          la=3 lb=2:      3 shell pairs
          la=3 lb=3:      1 shell pairs

Calculating one electron integrals          ... done (  0.0 sec)
Calculating ECP integrals                   ... done (  0.0 sec)
Calculating RI/J V-Matrix + Cholesky decomp.... done (  0.1 sec)
Calculating RI/C V-Matrix + Cholesky decomp.... done (  0.1 sec)
Calculating Nuclear repulsion               ... done (  0.0 sec) ENN=      0.000000000000 Eh

SHARK setup successfully completed in   0.6 seconds

Maximum memory used throughout the entire GTOINT-calculation: 22.8 MB


           ************************************************************
           *        Program running with 30 parallel MPI-processes    *
           *              working on a common directory               *
           ************************************************************

Diagonalization of the overlap matrix:
Smallest eigenvalue                        ... 7.547e-03
Time for diagonalization                   ...    0.001 sec
Threshold for overlap eigenvalues          ... 1.000e-08
Number of eigenvalues below threshold      ... 0
Time for construction of square roots      ...    0.021 sec
Total time needed                          ...    0.024 sec

Atom 0: N(Shells)= 13 and 18 - projection required
--------------------
COSX GRID GENERATION
--------------------

GRIDX 1
-------
General Integration Accuracy     IntAcc      ... 4.020
Radial Grid Type                 RadialGrid  ... OptM3 with GC (2021)
Angular Grid (max. ang.)         AngularGrid ... 2 (Lebedev-110)
Angular grid pruning method      GridPruning ... 4 (adaptive)
Weight generation scheme         WeightScheme... Becke
Basis function cutoff            BFCut       ... 1.0000e-10
Integration weight cutoff        WCut        ... 1.0000e-14
Angular grids for H and He will be reduced by one unit
Partially contracted basis set               ... on
Rotationally invariant grid construction     ... off

Total number of grid points                  ...     3110
Total number of batches                      ...       49
Average number of points per batch           ...       63
Average number of grid points per atom       ...     3110
UseSFitting                                  ... on

GRIDX 2
-------
General Integration Accuracy     IntAcc      ... 4.338
Radial Grid Type                 RadialGrid  ... OptM3 with GC (2021)
Angular Grid (max. ang.)         AngularGrid ... 3 (Lebedev-194)
Angular grid pruning method      GridPruning ... 4 (adaptive)
Weight generation scheme         WeightScheme... Becke
Basis function cutoff            BFCut       ... 1.0000e-10
Integration weight cutoff        WCut        ... 1.0000e-14
Angular grids for H and He will be reduced by one unit
Partially contracted basis set               ... on
Rotationally invariant grid construction     ... off

Total number of grid points                  ...     6268
Total number of batches                      ...       98
Average number of points per batch           ...       63
Average number of grid points per atom       ...     6268
UseSFitting                                  ... on

GRIDX 3
-------
General Integration Accuracy     IntAcc      ... 4.871
Radial Grid Type                 RadialGrid  ... OptM3 with GC (2021)
Angular Grid (max. ang.)         AngularGrid ... 4 (Lebedev-302)
Angular grid pruning method      GridPruning ... 4 (adaptive)
Weight generation scheme         WeightScheme... Becke
Basis function cutoff            BFCut       ... 1.0000e-10
Integration weight cutoff        WCut        ... 1.0000e-14
Angular grids for H and He will be reduced by one unit
Partially contracted basis set               ... on
Rotationally invariant grid construction     ... off

Total number of grid points                  ...    10976
Total number of batches                      ...      172
Average number of points per batch           ...       63
Average number of grid points per atom       ...    10976
UseSFitting                                  ... on

Time for X-Grid setup             =    0.451 sec

 re-compute Schwartz prescreening matrix in partically contracted basis (1) ...done (   0.101 sec)
--------------
SCF ITERATIONS
--------------
ITER       Energy         Delta-E        Max-DP      RMS-DP      [F,P]     Damp
               ***  Starting incremental Fock matrix formation  ***
  0   -167.3278339593   0.00000000000023.71621959  1.04321518  1.9363640 0.7000
  1   -206.8354331718 -39.50759921250416.63372161  0.72974733  1.1791878 0.7000
  2   -233.4077443391 -26.57231116731711.66204614  0.50984454  0.6922059 0.7000
  3   -251.8199835906 -18.412239251507 8.17281590  0.35631508  0.4103157 0.7000
  4   -264.6805147959 -12.860531205311 5.72614654  0.24917997  0.2620534 0.7000
                               ***Turning on DIIS***
  5   -273.6842054634  -9.003690667545 4.01134867  0.17435240  0.1739820 0.7000
  6   -280.2671408941  -6.582935430697 2.81208501  0.12205660  0.1170548 0.7000
  7   -284.4686501514  -4.201509257247 6.56547620  0.28510420  0.0825748 0.0000
  8   -294.7443442326 -10.275694081172 0.06914762  0.00259425  0.0092855 0.0000
  9   -294.7446442617  -0.000300029135 0.04981497  0.00164914  0.0061600 0.0000
                      *** Initiating the SOSCF procedure ***
                           *** Shutting down DIIS ***
                      *** Re-Reading the Fockian *** 
                      *** Removing any level shift *** 
ITER      Energy       Delta-E        Grad      Rot      Max-DP    RMS-DP
 10   -294.75420219  -0.0095579268  0.003082  0.003082  0.023424  0.000796
               *** Restarting incremental Fock matrix formation ***
 11   -294.73991443   0.0142877609  0.000659  0.000842  0.007020  0.000267
 12   -294.73991722  -0.0000027892  0.000278  0.000567  0.004143  0.000141
 13   -294.73991762  -0.0000004077  0.000035  0.000036  0.000255  0.000011
                 **** Energy Check signals convergence ****
              ***Rediagonalizing the Fockian in SOSCF/NRSCF***

               *****************************************************
               *                     SUCCESS                       *
               *           SCF CONVERGED AFTER  14 CYCLES          *
               *****************************************************

Old exchange energy                            =    -21.233394677 Eh
New exchange energy                            =    -21.233408999 Eh
Exchange energy change after final integration =     -0.000014322 Eh
Total energy after final integration           =   -294.739931954 Eh
Final COS-X integration done in                =     0.096 sec
Total Energy       :         -294.73993195 Eh           -8020.28129 eV
  Last Energy change         ...   -7.6370e-09  Tolerance :   1.0000e-06
  Last MAX-Density change    ...    2.6645e-15  Tolerance :   1.0000e-05
             **** THE GBW FILE WAS UPDATED (i_lw1x-p34_Compound_2.gbw) ****
             **** DENSITY i_lw1x-p34_Compound_2.scfp WAS UPDATED ****
             **** ENERGY FILE WAS UPDATED (i_lw1x-p34_Compound_2.en.tmp) ****
             **** THE GBW FILE WAS UPDATED (i_lw1x-p34_Compound_2.gbw) ****
             **** DENSITY i_lw1x-p34_Compound_2.scfp WAS UPDATED ****
----------------
ORBITAL ENERGIES
----------------

  NO   OCC          E(Eh)            E(eV) 
   0   2.0000      -7.429551      -202.1684 
   1   2.0000      -5.254909      -142.9933 
   2   2.0000      -5.254909      -142.9933 
   3   2.0000      -5.254909      -142.9933 
   4   2.0000      -1.982223       -53.9390 
   5   2.0000      -1.982223       -53.9390 
   6   2.0000      -1.982223       -53.9390 
   7   2.0000      -1.982223       -53.9390 
   8   2.0000      -1.982223       -53.9390 
   9   2.0000      -0.590447       -16.0669 
  10   2.0000      -0.111312        -3.0289 
  11   2.0000      -0.111311        -3.0289 
  12   2.0000      -0.111311        -3.0289 
  13   0.0000       0.456373        12.4185 
  14   0.0000       0.647497        17.6193 
  15   0.0000       0.647497        17.6193 
  16   0.0000       0.647497        17.6193 
  17   0.0000       0.647497        17.6193 
  18   0.0000       0.647497        17.6193 
  19   0.0000       0.672170        18.2907 
  20   0.0000       0.672171        18.2907 
  21   0.0000       0.672171        18.2907 
  22   0.0000       1.438089        39.1324 
  23   0.0000       1.438089        39.1324 
  24   0.0000       1.438089        39.1324 
  25   0.0000       1.438089        39.1324 
  26   0.0000       1.438089        39.1324 
  27   0.0000       1.438089        39.1324 
  28   0.0000       1.438089        39.1324 
  29   0.0000       1.543829        42.0097 
  30   0.0000       1.887189        51.3530 
  31   0.0000       1.887189        51.3530 
  32   0.0000       1.887189        51.3530 
  33   0.0000       1.887189        51.3530 
  34   0.0000       1.887189        51.3530 
  35   0.0000       3.042074        82.7791 
  36   0.0000       3.042075        82.7791 
  37   0.0000       3.042075        82.7791 
  38   0.0000      59.210689      1611.2048 
Total SCF time: 0 days 0 hours 0 min 5 sec 

Maximum memory used throughout the entire SCF-calculation: 60.8 MB


           ************************************************************
           *        Program running with 30 parallel MPI-processes    *
           *              working on a common directory               *
           ************************************************************

------------------------------------------------------------------------------
                                ORCA  MP2 
------------------------------------------------------------------------------

Freezing NCore=8 chemical core electrons
Initializing SHARK ... done


------------------------------------------------------------------------------
                           ORCA ORBITAL LOCALIZATION
------------------------------------------------------------------------------

Input orbitals are from                  ... i_lw1x-p34_Compound_2.gbw
Output orbitals are to                   ... i_lw1x-p34_Compound_2.loc
Max. number of iterations                ... 128
Localizations seeded randomly            ... off
Convergence tolerance                    ... 1.000e-06
Treshold for strong local MOs            ... 9.500e-01
Treshold for bond MOs                    ... 8.500e-01
Operator                                 ... 0
Orbital range for localization           ... 4 to 12
Localization criterion                   ... FOSTER-BOYS (AUGMENTED HESSIAN)
Doing the dipole integrals     ... o.k.
Initial value of the localization sum :     0.000000
ITERATION   0 : L=    3.8200601671 DL=  3.82e+00 (AVERGE_DL)=    0.3257495701 
ITERATION   1 : L=    5.0148666088 DL=  1.19e+00 (AVERGE_DL)=    0.1821786701 
ITERATION   2 : L=    5.1833754713 DL=  1.69e-01 (AVERGE_DL)=    0.0684163850 
ITERATION   3 : L=    5.2033786319 DL=  2.00e-02 (AVERGE_DL)=    0.0235720884 
ITERATION   4 : L=    5.2049979365 DL=  1.62e-03 (AVERGE_DL)=    0.0067067639 
ITERATION   5 : L=    5.2051187244 DL=  1.21e-04 (AVERGE_DL)=    0.0018317256 
ITERATION   6 : L=    5.2051355353 DL=  1.68e-05 (AVERGE_DL)=    0.0006833525 
ITERATION   7 : L=    5.2051447895 DL=  9.25e-06 (AVERGE_DL)=    0.0005070121 
ITERATION   8 : L=    5.2051532687 DL=  8.48e-06 (AVERGE_DL)=    0.0004853179 
ITERATION   9 : L=    5.2051612236 DL=  7.95e-06 (AVERGE_DL)=    0.0004700727 
ITERATION  10 : L=    5.2051683215 DL=  7.10e-06 (AVERGE_DL)=    0.0004440304 
ITERATION  11 : L=    5.2051742445 DL=  5.92e-06 (AVERGE_DL)=    0.0004056197 
ITERATION  12 : L=    5.2051788442 DL=  4.60e-06 (AVERGE_DL)=    0.0003574505 
ITERATION  13 : L=    5.2051821767 DL=  3.33e-06 (AVERGE_DL)=    0.0003042501 
ITERATION  14 : L=    5.2051844492 DL=  2.27e-06 (AVERGE_DL)=    0.0002512469 
ITERATION  15 : L=    5.2051859279 DL=  1.48e-06 (AVERGE_DL)=    0.0002026706 
ITERATION  16 : L=    5.2051868627 DL=  9.35e-07 (AVERGE_DL)=    0.0001611455 
LOCALIZATION SUM CONVERGED

------------------------------------------------------
AUGMENTED HESSIAN OPTIMIZATION OF FOSTER-BOYS ORBITALS
------------------------------------------------------

Spin operator:           0
Orbital window:          4 to 12
Number of iterations:    128
Gradient tolerance:      1.000e-06
Number of pairs:         36
Davidson threshold:      2000
Diagonalization method:  LAPACK
Iter:    0   L: 5.2051868627   Grad. norm: 1.276417e-03
   *** Detected a saddle point. ***
       Augmented Hessian eigenvalues:  5.87e-06  1.70e-06  8.35e-07  4.16e-07 ... 
Iter:    1   L: 5.2051882442   Grad. norm: 2.107905e-03
Iter:    2   L: 5.2051889285   Grad. norm: 8.423888e-04
Iter:    3   L: 5.2051889315   Grad. norm: 6.788971e-04
Iter:    4   L: 5.2051890666   Grad. norm: 7.262598e-04
Iter:    5   L: 5.2051891307   Grad. norm: 3.201945e-04
Iter:    6   L: 5.2051891195   Grad. norm: 4.935575e-04
Iter:    7   L: 5.2051891055   Grad. norm: 6.055564e-04
Iter:    8   L: 5.2051890991   Grad. norm: 6.243337e-04
Iter:    9   L: 5.2051890956   Grad. norm: 7.370518e-04
Iter:   10   L: 5.2051890981   Grad. norm: 6.921231e-04
Iter:   11   L: 5.2051891120   Grad. norm: 5.828686e-04
Iter:   12   L: 5.2051890981   Grad. norm: 7.015884e-04
Iter:   13   L: 5.2051890944   Grad. norm: 6.672596e-04
Iter:   14   L: 5.2051891070   Grad. norm: 6.132483e-04
Iter:   15   L: 5.2051890888   Grad. norm: 7.674605e-04
Iter:   16   L: 5.2051890956   Grad. norm: 7.034975e-04
Iter:   17   L: 5.2051891136   Grad. norm: 6.259400e-04
Iter:   18   L: 5.2051891138   Grad. norm: 6.183776e-04
Iter:   19   L: 5.2051890970   Grad. norm: 6.885755e-04
Iter:   20   L: 5.2051890952   Grad. norm: 6.354956e-04
Iter:   21   L: 5.2051890940   Grad. norm: 6.692188e-04
Iter:   22   L: 5.2051891008   Grad. norm: 6.334828e-04
Iter:   23   L: 5.2051891175   Grad. norm: 5.618707e-04
Iter:   24   L: 5.2051891071   Grad. norm: 6.259600e-04
Iter:   25   L: 5.2051891151   Grad. norm: 5.535907e-04
Iter:   26   L: 5.2051891086   Grad. norm: 6.138444e-04
Iter:   27   L: 5.2051891119   Grad. norm: 6.237880e-04
Iter:   28   L: 5.2051891031   Grad. norm: 6.982436e-04
Iter:   29   L: 5.2051891060   Grad. norm: 6.686772e-04
Iter:   30   L: 5.2051891126   Grad. norm: 5.485872e-04
Iter:   31   L: 5.2051891225   Grad. norm: 4.364993e-04
Iter:   32   L: 5.2051891268   Grad. norm: 5.240020e-04
Iter:   33   L: 5.2051891169   Grad. norm: 6.109130e-04
Iter:   34   L: 5.2051891253   Grad. norm: 4.833501e-04
Iter:   35   L: 5.2051891089   Grad. norm: 6.285536e-04
Iter:   36   L: 5.2051890892   Grad. norm: 7.408635e-04
Iter:   37   L: 5.2051890940   Grad. norm: 7.212855e-04
Iter:   38   L: 5.2051890889   Grad. norm: 7.874805e-04
Iter:   39   L: 5.2051890808   Grad. norm: 8.088639e-04
Iter:   40   L: 5.2051890991   Grad. norm: 7.526991e-04
Iter:   41   L: 5.2051891169   Grad. norm: 5.840472e-04
Iter:   42   L: 5.2051891228   Grad. norm: 5.733978e-04
Iter:   43   L: 5.2051891092   Grad. norm: 6.971107e-04
Iter:   44   L: 5.2051891000   Grad. norm: 7.032090e-04
Iter:   45   L: 5.2051890913   Grad. norm: 7.537174e-04
Iter:   46   L: 5.2051891064   Grad. norm: 6.888473e-04
Iter:   47   L: 5.2051891052   Grad. norm: 7.193690e-04
Iter:   48   L: 5.2051891042   Grad. norm: 7.233475e-04
Iter:   49   L: 5.2051891196   Grad. norm: 6.524200e-04
Iter:   50   L: 5.2051891251   Grad. norm: 6.026625e-04
Iter:   51   L: 5.2051891111   Grad. norm: 6.755274e-04
Iter:   52   L: 5.2051891053   Grad. norm: 7.184288e-04
Iter:   53   L: 5.2051891026   Grad. norm: 7.238205e-04
Iter:   54   L: 5.2051890928   Grad. norm: 7.987280e-04
Iter:   55   L: 5.2051890980   Grad. norm: 7.921164e-04
Iter:   56   L: 5.2051890908   Grad. norm: 8.390311e-04
Iter:   57   L: 5.2051890665   Grad. norm: 9.336491e-04
Iter:   58   L: 5.2051890762   Grad. norm: 8.560566e-04
Iter:   59   L: 5.2051890818   Grad. norm: 8.480434e-04
Iter:   60   L: 5.2051890744   Grad. norm: 8.938237e-04
Iter:   61   L: 5.2051890617   Grad. norm: 9.414422e-04
Iter:   62   L: 5.2051890923   Grad. norm: 7.883346e-04
Iter:   63   L: 5.2051890950   Grad. norm: 7.591460e-04
Iter:   64   L: 5.2051891006   Grad. norm: 6.942516e-04
Iter:   65   L: 5.2051891077   Grad. norm: 7.021583e-04
Iter:   66   L: 5.2051891168   Grad. norm: 6.422395e-04
Iter:   67   L: 5.2051891211   Grad. norm: 6.497532e-04
Iter:   68   L: 5.2051891230   Grad. norm: 5.723827e-04
Iter:   69   L: 5.2051891266   Grad. norm: 5.946086e-04
Iter:   70   L: 5.2051891324   Grad. norm: 5.793359e-04
Iter:   71   L: 5.2051891291   Grad. norm: 5.600919e-04
Iter:   72   L: 5.2051891292   Grad. norm: 5.866548e-04
Iter:   73   L: 5.2051891343   Grad. norm: 5.532606e-04
Iter:   74   L: 5.2051891319   Grad. norm: 6.062982e-04
Iter:   75   L: 5.2051891350   Grad. norm: 5.853748e-04
Iter:   76   L: 5.2051891297   Grad. norm: 5.577178e-04
Iter:   77   L: 5.2051891351   Grad. norm: 5.237695e-04
Iter:   78   L: 5.2051891266   Grad. norm: 5.685943e-04
Iter:   79   L: 5.2051891267   Grad. norm: 5.037057e-04
Iter:   80   L: 5.2051891165   Grad. norm: 5.293518e-04
Iter:   81   L: 5.2051891272   Grad. norm: 5.398894e-04
Iter:   82   L: 5.2051891417   Grad. norm: 3.864996e-04
Iter:   83   L: 5.2051891471   Grad. norm: 3.954973e-04
Iter:   84   L: 5.2051891389   Grad. norm: 4.687757e-04
Iter:   85   L: 5.2051891399   Grad. norm: 4.718568e-04
Iter:   86   L: 5.2051891375   Grad. norm: 5.357746e-04
Iter:   87   L: 5.2051891297   Grad. norm: 5.501546e-04
Iter:   88   L: 5.2051891413   Grad. norm: 4.046845e-04
Iter:   89   L: 5.2051891448   Grad. norm: 3.998225e-04
Iter:   90   L: 5.2051891360   Grad. norm: 4.882282e-04
Iter:   91   L: 5.2051891280   Grad. norm: 5.665510e-04
Iter:   92   L: 5.2051891169   Grad. norm: 6.449634e-04
Iter:   93   L: 5.2051891322   Grad. norm: 4.574653e-04
Iter:   94   L: 5.2051891365   Grad. norm: 4.485004e-04
Iter:   95   L: 5.2051891194   Grad. norm: 6.093930e-04
Iter:   96   L: 5.2051891221   Grad. norm: 5.312608e-04
Iter:   97   L: 5.2051891257   Grad. norm: 5.623623e-04
Iter:   98   L: 5.2051891052   Grad. norm: 6.481096e-04
Iter:   99   L: 5.2051891150   Grad. norm: 5.338433e-04
Iter:  100   L: 5.2051891247   Grad. norm: 5.453179e-04
Iter:  101   L: 5.2051891369   Grad. norm: 3.138772e-04
Iter:  102   L: 5.2051891244   Grad. norm: 4.762308e-04
Iter:  103   L: 5.2051891354   Grad. norm: 4.594086e-04
Iter:  104   L: 5.2051891166   Grad. norm: 6.088663e-04
Iter:  105   L: 5.2051890989   Grad. norm: 7.094541e-04
Iter:  106   L: 5.2051890984   Grad. norm: 6.884276e-04
Iter:  107   L: 5.2051890986   Grad. norm: 7.110565e-04
Iter:  108   L: 5.2051891219   Grad. norm: 5.351392e-04
Iter:  109   L: 5.2051891266   Grad. norm: 5.195341e-04
Iter:  110   L: 5.2051891252   Grad. norm: 5.268239e-04
Iter:  111   L: 5.2051891293   Grad. norm: 4.960518e-04
Iter:  112   L: 5.2051891177   Grad. norm: 5.669498e-04
[...]
  26   0.0000       1.316414        35.8215 
  27   0.0000       1.316414        35.8215 
  28   0.0000       1.316414        35.8215 
  29   0.0000       1.462285        39.7908 
  30   0.0000       1.792358        48.7726 
  31   0.0000       1.792358        48.7726 
  32   0.0000       1.792358        48.7726 
  33   0.0000       1.792358        48.7726 
  34   0.0000       1.792358        48.7726 
  35   0.0000       2.204844        59.9968 
  36   0.0000       2.204844        59.9968 
  37   0.0000       2.204844        59.9968 
  38   0.0000       2.692573        73.2686 
  39   0.0000       2.692573        73.2686 
  40   0.0000       2.692573        73.2686 
  41   0.0000       2.692573        73.2686 
  42   0.0000       2.692573        73.2686 
  43   0.0000       2.692573        73.2686 
  44   0.0000       2.692573        73.2686 
  45   0.0000       5.254341       142.9779 
  46   0.0000       5.254341       142.9779 
  47   0.0000       5.254341       142.9779 
  48   0.0000       5.254341       142.9779 
  49   0.0000       5.254341       142.9779 
  50   0.0000       5.700396       155.1157 
  51   0.0000       5.700396       155.1157 
  52   0.0000       5.700396       155.1157 
  53   0.0000       5.700396       155.1157 
  54   0.0000       5.700396       155.1157 
  55   0.0000       5.700396       155.1157 
  56   0.0000       5.700396       155.1157 
  57   0.0000       5.700396       155.1157 
  58   0.0000       5.700396       155.1157 
  59   0.0000       6.099553       165.9773 
  60   0.0000       8.173753       222.4191 
  61   0.0000       8.173753       222.4191 
  62   0.0000       8.173753       222.4191 
  63   0.0000       8.528072       232.0606 
  64   0.0000       8.528072       232.0606 
  65   0.0000       8.528072       232.0606 
  66   0.0000       8.528072       232.0606 
  67   0.0000       8.528072       232.0606 
  68   0.0000       8.528072       232.0606 
  69   0.0000       8.528072       232.0606 
  70   0.0000      14.201407       386.4399 
  71   0.0000      14.201407       386.4399 
  72   0.0000      14.201407       386.4399 
  73   0.0000      14.201407       386.4399 
  74   0.0000      14.201407       386.4399 
  75   0.0000      20.755794       564.7939 
  76   0.0000      42.770384      1163.8413 
  77   0.0000      42.770384      1163.8413 
  78   0.0000      42.770384      1163.8413 
  79   0.0000      82.089071      2233.7572 
Total SCF time: 0 days 0 hours 0 min 2 sec 

Maximum memory used throughout the entire SCF-calculation: 67.1 MB


           ************************************************************
           *        Program running with 30 parallel MPI-processes    *
           *              working on a common directory               *
           ************************************************************

------------------------------------------------------------------------------
                                ORCA  MP2 
------------------------------------------------------------------------------

Freezing NCore=0 chemical core electrons
Initializing SHARK ... done


------------------------------------------------------------------------------
                           ORCA ORBITAL LOCALIZATION
------------------------------------------------------------------------------

Input orbitals are from                  ... i_lw1x-p34_Compound_6.gbw
Output orbitals are to                   ... i_lw1x-p34_Compound_6.loc
Max. number of iterations                ... 128
Localizations seeded randomly            ... off
Convergence tolerance                    ... 1.000e-06
Treshold for strong local MOs            ... 9.500e-01
Treshold for bond MOs                    ... 8.500e-01
Operator                                 ... 0
Orbital range for localization           ... 0 to 12
Localization criterion                   ... FOSTER-BOYS (AUGMENTED HESSIAN)
Doing the dipole integrals     ... o.k.
Initial value of the localization sum :     0.000000
ITERATION   0 : L=    5.0959026066 DL=  5.10e+00 (AVERGE_DL)=    0.2556014176 
ITERATION   1 : L=    7.3436583857 DL=  2.25e+00 (AVERGE_DL)=    0.1697568313 
ITERATION   2 : L=    7.7865372487 DL=  4.43e-01 (AVERGE_DL)=    0.0753520679 
ITERATION   3 : L=    7.8591629454 DL=  7.26e-02 (AVERGE_DL)=    0.0305139095 
ITERATION   4 : L=    7.8680851595 DL=  8.92e-03 (AVERGE_DL)=    0.0106952027 
ITERATION   5 : L=    7.8699290128 DL=  1.84e-03 (AVERGE_DL)=    0.0048620103 
ITERATION   6 : L=    7.8706653154 DL=  7.36e-04 (AVERGE_DL)=    0.0030724219 
ITERATION   7 : L=    7.8711122575 DL=  4.47e-04 (AVERGE_DL)=    0.0023937475 
ITERATION   8 : L=    7.8714444989 DL=  3.32e-04 (AVERGE_DL)=    0.0020638570 
ITERATION   9 : L=    7.8717210026 DL=  2.77e-04 (AVERGE_DL)=    0.0018827956 
ITERATION  10 : L=    7.8719673424 DL=  2.46e-04 (AVERGE_DL)=    0.0017771333 
ITERATION  11 : L=    7.8721968389 DL=  2.29e-04 (AVERGE_DL)=    0.0017153022 
ITERATION  12 : L=    7.8724174479 DL=  2.21e-04 (AVERGE_DL)=    0.0016817613 
ITERATION  13 : L=    7.8726343396 DL=  2.17e-04 (AVERGE_DL)=    0.0016675321 
ITERATION  14 : L=    7.8728510221 DL=  2.17e-04 (AVERGE_DL)=    0.0016667276 
ITERATION  15 : L=    7.8730699395 DL=  2.19e-04 (AVERGE_DL)=    0.0016753009 
ITERATION  16 : L=    7.8732928527 DL=  2.23e-04 (AVERGE_DL)=    0.0016905208 
ITERATION  17 : L=    7.8735210943 DL=  2.28e-04 (AVERGE_DL)=    0.0017106066 
ITERATION  18 : L=    7.8737557412 DL=  2.35e-04 (AVERGE_DL)=    0.0017344431 
ITERATION  19 : L=    7.8739977029 DL=  2.42e-04 (AVERGE_DL)=    0.0017612706 
DETECTED SLOW CONVERGENCE - QUITTING

------------------------------------------------------
AUGMENTED HESSIAN OPTIMIZATION OF FOSTER-BOYS ORBITALS
------------------------------------------------------

Spin operator:           0
Orbital window:          0 to 12
Number of iterations:    128
Gradient tolerance:      1.000e-06
Number of pairs:         78
Davidson threshold:      2000
Diagonalization method:  LAPACK
Iter:    0   L: 7.8739977029   Grad. norm: 2.948686e-02
   *** Detected a saddle point. ***
       Augmented Hessian eigenvalues:  8.12e-02  9.37e-03  4.91e-05  3.17e-05 ... 
Iter:    1   L: 7.8780107486   Grad. norm: 5.850196e-02
Iter:    2   L: 7.8822918552   Grad. norm: 1.546594e-01
Iter:    3   L: 7.8959125831   Grad. norm: 1.559734e-01
Iter:    4   L: 7.9044066631   Grad. norm: 1.297895e-01
Iter:    5   L: 7.9077032173   Grad. norm: 2.344061e-02
Iter:    6   L: 7.9078113290   Grad. norm: 4.560474e-03
Iter:    7   L: 7.9078141995   Grad. norm: 2.315662e-03
Iter:    8   L: 7.9078148133   Grad. norm: 1.505647e-03
Iter:    9   L: 7.9078151236   Grad. norm: 1.119050e-03
Iter:   10   L: 7.9078152535   Grad. norm: 1.118165e-03
Iter:   11   L: 7.9078153234   Grad. norm: 1.218450e-03
Iter:   12   L: 7.9078153897   Grad. norm: 1.280124e-03
Iter:   13   L: 7.9078154596   Grad. norm: 1.295401e-03
Iter:   14   L: 7.9078155312   Grad. norm: 1.277635e-03
Iter:   15   L: 7.9078156016   Grad. norm: 1.237575e-03
Iter:   16   L: 7.9078156690   Grad. norm: 1.179208e-03
Iter:   17   L: 7.9078157323   Grad. norm: 1.101382e-03
Iter:   18   L: 7.9078157910   Grad. norm: 9.988592e-04
Iter:   19   L: 7.9078158447   Grad. norm: 8.604155e-04
Iter:   20   L: 7.9078158937   Grad. norm: 6.588855e-04
Iter:   21   L: 7.9078159401   Grad. norm: 2.168359e-04
Iter:   22   L: 7.9078159455   Grad. norm: 1.250510e-05
   *** Likely close to a maximum now. ***
       Augmented Hessian eigenvalues:  3.66e-11 -1.48e-07 -2.59e-07 -4.05e-07 ... 
Iter:   23   L: 7.9078159456   Grad. norm: 1.330916e-08
LOCALIZATION HAS CONVERGED.

Eigenvalues of the Hessian:
  0 -1.477e-07
  1 -2.587e-07
  2 -4.052e-07
  3 -1.634e-01
  4 -1.975e-01
  5 -2.634e-01
  6 -3.041e-01
  7 -3.922e-01
  8 -7.553e-01
  9 -7.945e-01
    ...


------------------------------------------------------------------------------- 
                    LOCALIZED MOLECULAR ORBITAL COMPOSITIONS                   
------------------------------------------------------------------------------- 

The Mulliken populations for each LMO on each atom are computed
The LMO`s will be ordered according to atom index and type
  (A) Strongly localized MO`s have populations of >=0.950 on one atom
  (B) Two center bond orbitals have populations of >=0.850 on two atoms
  (C) Other MO`s are considered to be `delocalized`

FOUND  -  13 strongly local MO`s
       -   0 two center bond MO`s
       -   0 significantly delocalized MO`s

Rather strongly localized orbitals:
MO  12:   0I  -   1.000000
MO  11:   0I  -   1.000000
MO  10:   0I  -   1.000000
MO   9:   0I  -   1.000000
MO   8:   0I  -   1.000000
MO   7:   0I  -   1.000000
MO   6:   0I  -   1.000000
MO   5:   0I  -   1.000000
MO   4:   0I  -   1.000000
MO   3:   0I  -   1.000000
MO   2:   0I  -   1.000000
MO   1:   0I  -   1.000000
MO   0:   0I  -   1.000000
Localized MO's were stored in: i_lw1x-p34_Compound_6.loc



Calculating differential overlap integrals ... ok
Threshold for domain construction in prescreening: TCutDOPre = 3.0e-02

--------------------------
ELECTRON PAIR PRESCREENING
--------------------------

Dipole-based pair screening          .... used

   TCutDOij = 1.000000e-05
   TCutPre  = 1.000000e-06
   .... Finished loop over pairs
Total time spent in the prescreening                  ...     0.007 sec
sum of pair energies estimated for screened out pairs ...       0.000000000000 Eh

---------------------------
MAP CONSTRUCTION THRESHOLDS
---------------------------
    TCutMKN     ...     1.0e-03
    TCutDO      ...     5.0e-03
    TCutC(MO)   ...     1.0e-03
    TCutC(PAO)  ...     1.0e-03

--------------------------------
LOCAL RI TRANSFORMATION (IAVPAO)
--------------------------------

Orbital window:       0 to 12
Number of PAOs:      80
Basis functions:     80 (22 shells)
Aux. functions:     363 (65 shells)
Use SHARK:           on

Processing maps (0.0 sec)
Average map sizes:
   Aux shells -> MOs              13.0
   Aux shells -> PAOs             80.0
   MOs        -> AO shells        22.0
   PAOs       -> AO shells        22.0

Calculating integrals (0.1 sec, 2.884 MB)
Sorting integrals (0.0 sec, 2.880 MB)
Total time for the integral transformation: 0.2 sec

----------------------------
Local MP2 Energy Calculation
----------------------------
Number of orbital pairs included:     91
Truncation parameters:
    PAOOverlapThresh    =        1.000e-08
    TCutPNO             =        1.000e-09

Spin component scaling                      .... not used
MP2 energy scaling factor                   .... 1.000

Formation of semicanonical amplitudes.
 10% done.
 20% done.
 30% done.
 40% done.
 50% done.
 60% done.
 70% done.
 80% done.
 90% done.
100% done.

Finished the LMP2 guess in 0.1 sec.

Average number of PAOs per pair         80.0
Average number of nrPAOs per pair       67.0
Average number of PNOs per pair         64.9
Average number of AUX  per pair        363.0

Semicanonical MP2 energy:                   -0.813596101590 Eh
Semicanonical MP2 energy in PNO basis:      -0.813592690028 Eh

Initial amplitudes guess done. Entering DLPNO-MP2 iteration loop:
   Max. no of iterations          ...  100
   Energy convergence tolerance   ...    1.0e-06 Eh
   Residual convergence tolerance ...    5.0e-06
   Fock matrix cutoff             ...    1.0e-05 Eh
   Max # vectors in DIIS          ...  7
   Start iteration of DIIS        ...  0
   Levelshift                     ...  2.000e-01 Eh
   Damping before turning on DIIS ...  5.000e-01
   Damping after turning on DIIS  ...  0.000e+00

                           *** Turning on DIIS ***
Iter=   0:  ECORR= -0.881295825736  DE=   6.8e-02 RMAX=   1.5e-02
Iter=   1:  ECORR= -0.921885921776  DE=   4.1e-02 RMAX=   9.9e-03
Iter=   2:  ECORR= -0.939311089965  DE=   1.7e-02 RMAX=   4.7e-03
Iter=   3:  ECORR= -0.942827597722  DE=   3.5e-03 RMAX=   2.1e-03
Iter=   4:  ECORR= -0.944244627490  DE=   1.4e-03 RMAX=   1.1e-03
Iter=   5:  ECORR= -0.944482618339  DE=   2.4e-04 RMAX=   4.0e-04
Iter=   6:  ECORR= -0.944499279776  DE=   1.7e-05 RMAX=   1.3e-04
Iter=   7:  ECORR= -0.944499801054  DE=   5.2e-07 RMAX=   5.3e-05
Iter=   8:  ECORR= -0.944506661353  DE=   6.9e-06 RMAX=   2.9e-05
Iter=   9:  ECORR= -0.944506758912  DE=   9.8e-08 RMAX=   1.4e-05
Iter=  10:  ECORR= -0.944508868542  DE=   2.1e-06 RMAX=   7.2e-06
Iter=  11:  ECORR= -0.944509276088  DE=   4.1e-07 RMAX=   4.4e-06 => CONVERGED

Finished the DLPNO-MP2 iterations in 11.2 sec.

LMP2 correlation energy (all non-screened pairs)      ...     -0.944509276088 Eh
Semicanonical PNO correction to energy                ...     -0.000003411562 Eh
Sum of pair energies estimated for screened out pairs ...      0.000000000000 Eh
                                                         -----------------------
Total:                                                ...     -0.944512687650 Eh

------------------------------------------------------
 DLPNO-MP2 CORRELATION ENERGY:      -0.944512687650 Eh
------------------------------------------------------

TIMINGS FOR DLPNO-MP2:
Localization                             ...        0.288 sec
Differential overlap integrals           ...        0.550 sec
Prescreening                             ...        0.159 sec
Map setup                                ...        0.002 sec
(ia|v) trafo                             ...        0.212 sec
Semicanonical amplitudes                 ...        0.025 sec
PNO construction                         ...        0.007 sec
DLPNO-MP2 iterations                     ...       11.184 sec
                                             ----------------
Total time                                         13.507 sec


---------------------------------------
MP2 TOTAL ENERGY:     -295.685183983 Eh
---------------------------------------

Maximum memory used throughout the entire MP2-calculation: 135.6 MB

-------------------------   --------------------
FINAL SINGLE POINT ENERGY      -295.685183982579
-------------------------   --------------------


                            ***************************************
                            *     ORCA property calculations      *
                            ***************************************


  WARNING: The energy has been calculated at the MP2 level but the densities
           used in the property calculations are still SCF densities
           MP2 response densities have not been calculated 
           use %mp2 Density relaxed end
           or  %mp2 Density unrelaxed end

                                    ---------------------
                                    Active property flags
                                    ---------------------
   (+) Dipole Moment


------------------------------------------------------------------------------
                       ORCA ELECTRIC PROPERTIES CALCULATION
------------------------------------------------------------------------------

Dipole Moment Calculation                       ... on
Quadrupole Moment Calculation                   ... off
Polarizability Calculation                      ... off
GBWName                                         ... i_lw1x-p34_Compound_6.gbw
Electron density                                ... i_lw1x-p34_Compound_6.scfp
The origin for moment calculation is the CENTER OF MASS  = ( 0.000000,  0.000000  0.000000)

-------------
DIPOLE MOMENT
-------------
                                X             Y             Z
Electronic contribution:      0.00000       0.00000       0.00000
Nuclear contribution   :      0.00000       0.00000       0.00000
                        -----------------------------------------
Total Dipole Moment    :      0.00000       0.00000       0.00000
                        -----------------------------------------
Magnitude (a.u.)       :      0.00000
Magnitude (Debye)      :      0.00000



--------------------
Rotational spectrum 
--------------------
 
Rotational constants in cm-1:     0.000000     0.000000     0.000000 
Rotational constants in MHz :     0.000000     0.000000     0.000000 

 Dipole components along the rotational axes: 
x,y,z [a.u.] :     0.000000     0.000000     0.000000 
x,y,z [Debye]:     0.000000     0.000000     0.000000 

 

Timings for individual modules:

Sum of individual times         ...       31.301 sec (=   0.522 min)
GTO integral calculation        ...        9.174 sec (=   0.153 min)  29.3 %
SCF iterations                  ...        6.793 sec (=   0.113 min)  21.7 %
MP2 module                      ...       15.333 sec (=   0.256 min)  49.0 %
================================================================================

cite the ECPs for I  [Def2-ECP] as follows:
Ce-Yb(ecp-28): M. Dolg, H. Stoll, H.Preuss, J. Chem. Phys., 1989, 90, 1730-1734.
Y-Cd(ecp-28), Hf-Hg(ecp-46): D. Andrae,U. Haeussermann, M. Dolg, H. Stoll, H. Preuss, Theor. Chim. Acta, 1990, 77, 123-141.
In-Sb(ecp-28), Tl-Bi(ecp-46): B. Metz, H. Stoll, M. Dolg, J. Chem. Phys., 2000, 113, 2563-2569.
Te-Xe(ecp-28), Po-Rn(ecp-46): K. A. Peterson, D. Figgen, E. Goll, H. Stoll, M. Dolg, J. Chem. Phys., 2003, 119, 11113-11123.
Rb(ecp-28), Cs(ecp-46): T. Leininger, A. Nicklass, W. Kuechle, H. Stoll, M. Dolg, A. Bergner, Chem. Phys. Lett., 1996, 255, 274-280.
Sr(ecp-28), Ba(ecp-46): M. Kaupp, P. V. Schleyer, H. Stoll and H. Preuss, J. Chem. Phys., 1991, 94, 1360-1366.
La(ecp-46): M. Dolg, H. Stoll, A. Savin, H. Preuss, Theor. Chim. Acta, 1989, 75, 173-194.
Lu(ecp-28): X. Cao, M. Dolg, J. Chem. Phys., 2001, 115, 7348-7355.

ECP parameters for I  [Def2-ECP] have been obtained from:
TURBOMOLE (7.0.2)

----- Orbital basis set information -----
Your calculation utilizes the basis: def2-SVP
   F. Weigend and R. Ahlrichs, Phys. Chem. Chem. Phys. 7, 3297 (2005).



----------------------------------------------------------------------------------------------
                                        COMPOUND BLOCK                                        
                                     SUMMARY OF VARIABLES                                     
----------------------------------------------------------------------------------------------

Variable Name                                           Value             Evaluation String
-------------                                           -----             -----------------
HF_DZ                                    |            -294.74602942    |  
EC_DZ                                    |              -0.82308730    |  
CC_DZ                                    |              -0.81604098    |  EC_DZ-T_DZ
T_DZ                                     |              -0.00704632    |  
HF_TZ                                    |            -294.74899961    |  
EC_TZ                                    |              -0.90836024    |  
CC_TZ                                    |              -0.88529235    |  EC_TZ-T_TZ
T_TZ                                     |              -0.02306789    |  
HF_CBS                                   |            -294.74945007    |  HF_TZ-(HF_TZ-HF_DZ)*3^-5/(3^-5-2^-5)
CC_CBS                                   |              -0.89715992    |  CC_TZ-(CC_TZ-CC_DZ)*3^-4.7405/(3^-4.7405-2^-4.7405)
T_CBS                                    |              -0.03509938    |  T_TZ-(T_TZ-T_DZ)*3^-2.0879/(3^-2.0879-2^-2.0879)
MP_FC                                    |            -295.68517859    |  
MP_FU                                    |            -295.68518398    |  
MP_CV                                    |              -0.00000539    |  MP_FU-MP_FC
MP_PP                                    |            -294.94654554    |  
MP_DK                                    |           -7111.14857262    |  
MP_REL                                   |           -6816.20202708    |  MP_DK-MP_PP
LW1X                                     |           -7111.88374184    |  HF_CBS+CC_CBS+T_CBS+MP_CV+MP_REL
                             ****ORCA TERMINATED NORMALLY****
TOTAL RUN TIME: 0 days 0 hours 10 minutes 58 seconds 738 msec
