
                                 *****************
                                 * O   R   C   A *
                                 *****************

                                            #,                                       
                                            ###                                      
                                            ####                                     
                                            #####                                    
                                            ######                                   
                                           ########,                                 
                                     ,,################,,,,,                         
                               ,,#################################,,                 
                          ,,##########################################,,             
                       ,#########################################, ''#####,          
                    ,#############################################,,   '####,        
                  ,##################################################,,,,####,       
                ,###########''''           ''''###############################       
              ,#####''   ,,,,##########,,,,          '''####'''          '####       
            ,##' ,,,,###########################,,,                        '##       
           ' ,,###''''                  '''############,,,                           
         ,,##''                                '''############,,,,        ,,,,,,###''
      ,#''                                            '''#######################'''  
     '                                                          ''''####''''         
             ,#######,   #######,   ,#######,      ##                                
            ,#'     '#,  ##    ##  ,#'     '#,    #''#        ######   ,####,        
            ##       ##  ##   ,#'  ##            #'  '#       #        #'  '#        
            ##       ##  #######   ##           ,######,      #####,   #    #        
            '#,     ,#'  ##    ##  '#,     ,#' ,#      #,         ##   #,  ,#        
             '#######'   ##     ##  '#######'  #'      '#     #####' # '####'        



                  #######################################################
                  #                        -***-                        #
                  #          Department of theory and spectroscopy      #
                  #    Directorship and core code : Frank Neese         #
                  #        Max Planck Institute fuer Kohlenforschung    #
                  #                Kaiser Wilhelm Platz 1               #
                  #                 D-45470 Muelheim/Ruhr               #
                  #                      Germany                        #
                  #                                                     #
                  #                  All rights reserved                #
                  #                        -***-                        #
                  #######################################################


                         Program Version 5.0.1 -  RELEASE  -


 With contributions from (in alphabetic order):
   Daniel Aravena         : Magnetic Suceptibility
   Michael Atanasov       : Ab Initio Ligand Field Theory (pilot matlab implementation)
   Alexander A. Auer      : GIAO ZORA, VPT2 properties, NMR spectrum
   Ute Becker             : Parallelization
   Giovanni Bistoni       : ED, misc. LED, open-shell LED, HFLD
   Martin Brehm           : Molecular dynamics
   Dmytro Bykov           : SCF Hessian
   Vijay G. Chilkuri      : MRCI spin determinant printing, contributions to CSF-ICE
   Dipayan Datta          : RHF DLPNO-CCSD density
   Achintya Kumar Dutta   : EOM-CC, STEOM-CC
   Dmitry Ganyushin       : Spin-Orbit,Spin-Spin,Magnetic field MRCI
   Miquel Garcia          : C-PCM and meta-GGA Hessian, CC/C-PCM, Gaussian charge scheme
   Yang Guo               : DLPNO-NEVPT2, F12-NEVPT2, CIM, IAO-localization
   Andreas Hansen         : Spin unrestricted coupled pair/coupled cluster methods
   Benjamin Helmich-Paris : MC-RPA, TRAH-SCF, COSX integrals
   Lee Huntington         : MR-EOM, pCC
   Robert Izsak           : Overlap fitted RIJCOSX, COSX-SCS-MP3, EOM
   Marcus Kettner         : VPT2
   Christian Kollmar      : KDIIS, OOCD, Brueckner-CCSD(T), CCSD density, CASPT2, CASPT2-K
   Simone Kossmann        : Meta GGA functionals, TD-DFT gradient, OOMP2, MP2 Hessian
   Martin Krupicka        : Initial AUTO-CI
   Lucas Lang             : DCDCAS
   Marvin Lechner         : AUTO-CI (C++ implementation), FIC-MRCC
   Dagmar Lenk            : GEPOL surface, SMD
   Dimitrios Liakos       : Extrapolation schemes; Compound Job, initial MDCI parallelization
   Dimitrios Manganas     : Further ROCIS development; embedding schemes
   Dimitrios Pantazis     : SARC Basis sets
   Anastasios Papadopoulos: AUTO-CI, single reference methods and gradients
   Taras Petrenko         : DFT Hessian,TD-DFT gradient, ASA, ECA, R-Raman, ABS, FL, XAS/XES, NRVS
   Peter Pinski           : DLPNO-MP2, DLPNO-MP2 Gradient
   Christoph Reimann      : Effective Core Potentials
   Marius Retegan         : Local ZFS, SOC
   Christoph Riplinger    : Optimizer, TS searches, QM/MM, DLPNO-CCSD(T), (RO)-DLPNO pert. Triples
   Tobias Risthaus        : Range-separated hybrids, TD-DFT gradient, RPA, STAB
   Michael Roemelt        : Original ROCIS implementation
   Masaaki Saitow         : Open-shell DLPNO-CCSD energy and density
   Barbara Sandhoefer     : DKH picture change effects
   Avijit Sen             : IP-ROCIS
   Kantharuban Sivalingam : CASSCF convergence, NEVPT2, FIC-MRCI
   Bernardo de Souza      : ESD, SOC TD-DFT
   Georgi Stoychev        : AutoAux, RI-MP2 NMR, DLPNO-MP2 response
   Willem Van den Heuvel  : Paramagnetic NMR
   Boris Wezisla          : Elementary symmetry handling
   Frank Wennmohs         : Technical directorship


 We gratefully acknowledge several colleagues who have allowed us to
 interface, adapt or use parts of their codes:
   Stefan Grimme, W. Hujo, H. Kruse, P. Pracht,  : VdW corrections, initial TS optimization,
                  C. Bannwarth, S. Ehlert          DFT functionals, gCP, sTDA/sTD-DF
   Ed Valeev, F. Pavosevic, A. Kumar             : LibInt (2-el integral package), F12 methods
   Garnet Chan, S. Sharma, J. Yang, R. Olivares  : DMRG
   Ulf Ekstrom                                   : XCFun DFT Library
   Mihaly Kallay                                 : mrcc  (arbitrary order and MRCC methods)
   Jiri Pittner, Ondrej Demel                    : Mk-CCSD
   Frank Weinhold                                : gennbo (NPA and NBO analysis)
   Christopher J. Cramer and Donald G. Truhlar   : smd solvation model
   Lars Goerigk                                  : TD-DFT with DH, B97 family of functionals
   V. Asgeirsson, H. Jonsson                     : NEB implementation
   FAccTs GmbH                                   : IRC, NEB, NEB-TS, DLPNO-Multilevel, CI-OPT
                                                   MM, QMMM, 2- and 3-layer-ONIOM, Crystal-QMMM,
                                                   LR-CPCM, SF, NACMEs, symmetry and pop. for TD-DFT,
                                                   nearIR, NL-DFT gradient (VV10), updates on ESD,
                                                   ML-optimized integration grids
   S Lehtola, MJT Oliveira, MAL Marques          : LibXC Library
   Liviu Ungur et al                             : ANISO software


 Your calculation uses the libint2 library for the computation of 2-el integrals
 For citations please refer to: http://libint.valeyev.net

 Your ORCA version has been built with support for libXC version: 5.1.0
 For citations please refer to: https://tddft.org/programs/libxc/

 This ORCA versions uses:
   CBLAS   interface :  Fast vector & matrix operations
   LAPACKE interface :  Fast linear algebra routines
   SCALAPACK package :  Parallel linear algebra routines
   Shared memory     :  Shared parallel matrices
   BLAS/LAPACK       :  OpenBLAS 0.3.15  USE64BITINT DYNAMIC_ARCH NO_AFFINITY SkylakeX SINGLE_THREADED
        Core in use  :  SkylakeX
   Copyright (c) 2011-2014, The OpenBLAS Project




################################################################################


                                COMPOUND JOB MainJOB 
Basename: i-anion_lw1x-jun_Compound_0

################################################################################

================================================================================
                                       INPUT FILE
================================================================================
NAME = i-anion_lw1x-jun_Compound_0.inp
|  1> %Maxcore 1000
|  2>  %Pal nprocs 6 End
|  3>  
|  4>  * xyz -1 1
|  5>  I        0.000000    0.000000    0.000000
|  6>  *
|  7>  
|  8> 
|  9>                          ****END OF INPUT****
================================================================================
================================================================================

cite the ECPs for I  [Def2-ECP] as follows:
Ce-Yb(ecp-28): M. Dolg, H. Stoll, H.Preuss, J. Chem. Phys., 1989, 90, 1730-1734.
Y-Cd(ecp-28), Hf-Hg(ecp-46): D. Andrae,U. Haeussermann, M. Dolg, H. Stoll, H. Preuss, Theor. Chim. Acta, 1990, 77, 123-141.
In-Sb(ecp-28), Tl-Bi(ecp-46): B. Metz, H. Stoll, M. Dolg, J. Chem. Phys., 2000, 113, 2563-2569.
Te-Xe(ecp-28), Po-Rn(ecp-46): K. A. Peterson, D. Figgen, E. Goll, H. Stoll, M. Dolg, J. Chem. Phys., 2003, 119, 11113-11123.
Rb(ecp-28), Cs(ecp-46): T. Leininger, A. Nicklass, W. Kuechle, H. Stoll, M. Dolg, A. Bergner, Chem. Phys. Lett., 1996, 255, 274-280.
Sr(ecp-28), Ba(ecp-46): M. Kaupp, P. V. Schleyer, H. Stoll and H. Preuss, J. Chem. Phys., 1991, 94, 1360-1366.
La(ecp-46): M. Dolg, H. Stoll, A. Savin, H. Preuss, Theor. Chim. Acta, 1989, 75, 173-194.
Lu(ecp-28): X. Cao, M. Dolg, J. Chem. Phys., 2001, 115, 7348-7355.

ECP parameters for I  [Def2-ECP] have been obtained from:
TURBOMOLE (7.0.2)

----- Orbital basis set information -----
Your calculation utilizes the basis: def2-SVP
   F. Weigend and R. Ahlrichs, Phys. Chem. Chem. Phys. 7, 3297 (2005).



################################################################################


                                COMPOUND JOB  1 
Basename: i-anion_lw1x-jun_Compound_1
NOTE: please remember that MaxCore and PAL settings will be ignored.

################################################################################

================================================================================
                                       INPUT FILE
================================================================================
NAME = i-anion_lw1x-jun_Compound_1.inp
|  1>     ! DKH DefGrid3 RIJCOSX TightPNO DLPNO-MP2 MiniPrint NoPop
|  2>     %Basis
|  3>       Basis         "cc-pVTZ-DK"
|  4>       AuxJ          "AutoAux"
|  5>       AuxC          "AutoAux"
|  6>       CABS          "AutoAux"
|  7>       NewGTO     Ga "cc-pVTZ-DK" End
|  8>       NewAuxjGTO Ga "AutoAux" End
|  9>       NewAuxcGTO Ga "AutoAux" End
| 10>       NewCabsGTO Ga "AutoAux" End
| 11>       NewGTO     Ge "cc-pVTZ-DK" End
| 12>       NewAuxjGTO Ge "AutoAux" End
| 13>       NewAuxcGTO Ge "AutoAux" End
| 14>       NewCabsGTO Ge "AutoAux" End
| 15>       NewGTO     As "cc-pVTZ-DK" End
| 16>       NewAuxjGTO As "AutoAux" End
| 17>       NewAuxcGTO As "AutoAux" End
| 18>       NewCabsGTO As "AutoAux" End
| 19>       NewGTO     Se "cc-pVTZ-DK" End
| 20>       NewAuxjGTO Se "AutoAux" End
| 21>       NewAuxcGTO Se "AutoAux" End
| 22>       NewCabsGTO Se "AutoAux" End
| 23>       NewGTO     Br "cc-pVTZ-DK" End
| 24>       NewAuxjGTO Br "AutoAux" End
| 25>       NewAuxcGTO Br "AutoAux" End
| 26>       NewCabsGTO Br "AutoAux" End
| 27>       NewGTO     Kr "cc-pVTZ-DK" End
| 28>       NewAuxjGTO Kr "AutoAux" End
| 29>       NewAuxcGTO Kr "AutoAux" End
| 30>       NewCabsGTO Kr "AutoAux" End
| 31>       NewGTO     In "cc-pVTZ-DK" End
| 32>       NewAuxjGTO In "AutoAux" End
| 33>       NewAuxcGTO In "AutoAux" End
| 34>       NewCabsGTO In "AutoAux" End
| 35>       NewGTO     Sn "cc-pVTZ-DK" End
| 36>       NewAuxjGTO Sn "AutoAux" End
| 37>       NewAuxcGTO Sn "AutoAux" End
| 38>       NewCabsGTO Sn "AutoAux" End
| 39>       NewGTO     Sb "cc-pVTZ-DK" End
| 40>       NewAuxjGTO Sb "AutoAux" End
| 41>       NewAuxcGTO Sb "AutoAux" End
| 42>       NewCabsGTO Sb "AutoAux" End
| 43>       NewGTO     Te "cc-pVTZ-DK" End
| 44>       NewAuxjGTO Te "AutoAux" End
| 45>       NewAuxcGTO Te "AutoAux" End
| 46>       NewCabsGTO Te "AutoAux" End
| 47>       NewGTO     I  "cc-pVTZ-DK" End
| 48>       NewAuxjGTO I  "AutoAux" End
| 49>       NewAuxcGTO I  "AutoAux" End
| 50>       NewCabsGTO I  "AutoAux" End
| 51>       NewGTO     Xe "cc-pVTZ-DK" End
| 52>       NewAuxjGTO Xe "AutoAux" End
| 53>       NewAuxcGTO Xe "AutoAux" End
| 54>       NewCabsGTO Xe "AutoAux" End
| 55>     End
| 56> 
| 57>                          ****END OF INPUT****
================================================================================
Warning! AutoAux has not been tested for CABS - use at your own risk!
================================================================================

----- Orbital basis set information -----
Your calculation utilizes the basis: cc-pVTZ-DK 
    H-He, B-Ne : Obtained from the ccRepo (grant-hill.group.shef.ac.uk/ccrepo) Feb. 2017
                 W. A. de Jong, R. J. Harrison, D. A. Dixon, J. Chem. Phys. 114, 48 (2001)
  Li-Be, Na-Mg : Obtained from the Peterson Research Group Website (tyr0.chem.wsu.edu/~kipeters) Feb. 2017
                 B. P. Prascher, D. E. Woon, K. A. Peterson, T. H. Dunning, Jr., A. K. Wilson, Theor. Chem. Acc. 128, 69 (2011)
  Al-Ar, Ga-Kr : Obtained from the EMSL Basis Set Exchange (bse.pnl.gov) Feb. 2017
                 W. A. de Jong, R. J. Harrison, D. A. Dixon, J. Chem. Phys. 114, 48 (2001)
         Sc-Zn : Obtained from the ccRepo (grant-hill.group.shef.ac.uk/ccrepo) Feb. 2017
                 N. B. Balabanov, K. A. Peterson, J. Chem. Phys. 123, 064107 (2005)
                 N. B. Balabanov, K. A. Peterson, J. Chem. Phys. 125, 074110 (2006)
          Y-Pd : Obtained from the ccRepo (grant-hill.group.shef.ac.uk/ccrepo) Feb. 2017
                 K. A. Peterson, D. Figgen, M. Dolg, H. Stoll, J. Chem. Phys. 126, 124101 (2007)
  Ag-Cd, Au-Hg : Obtained from the ccRepo (grant-hill.group.shef.ac.uk/ccrepo) Feb. 2017
                 K. A. Peterson, C. Puzzarini, Theor. Chem. Acc. 114, 283 (2005)
  In-Xe, Tl-Rn : Obtained from the ccRepo (grant-hill.group.shef.ac.uk/ccrepo) Feb. 2017
                 D. H. Bross, K. A. Peterson, Theor. Chem. Acc. 133, 1434 (2014)
         Hf-Pt : Obtained from the ccRepo (grant-hill.group.shef.ac.uk/ccrepo) Feb. 2017
                 D. Figgen, K. A. Peterson, M. Dolg, H. Stoll, J. Chem. Phys. 130, 164108 (2009)

The basis set includes element-specific modifications.

----- AuxJ basis set information -----
Your calculation utilizes the AutoAux generation procedure.
  G. L. Stoychev, A. A. Auer, F. Neese, J. Chem. Theory Comput. 13, 554 (2017)

The basis set includes element-specific modifications.

----- AuxC basis set information -----
Your calculation utilizes the AutoAux generation procedure.
  G. L. Stoychev, A. A. Auer, F. Neese, J. Chem. Theory Comput. 13, 554 (2017)

The basis set includes element-specific modifications.

----- CABS information -----
Your calculation utilizes the AutoAux generation procedure.
  G. L. Stoychev, A. A. Auer, F. Neese, J. Chem. Theory Comput. 13, 554 (2017)

The basis set includes element-specific modifications.


                    <<< The CABS basis set will be decontracted >>>

================================================================================
                                        WARNINGS
                       Please study these warnings very carefully!
================================================================================


WARNING: No MP2 level density has been requested!
         To caclulate MP2 level properties use
         %mp2 Density relaxed end
         or
         %mp2 Density unrelaxed end

WARNING: Post HF methods need fully converged wavefunctions
  ===> : Setting SCFConvForced true
         You can overwrite this default with %scf ConvForced false 


INFO   : the flag for use of the SHARK integral package has been found!


                       ****************************
                       * Single Point Calculation *
                       ****************************

---------------------------------
CARTESIAN COORDINATES (ANGSTROEM)
---------------------------------
  I      0.000000    0.000000    0.000000

----------------------------
CARTESIAN COORDINATES (A.U.)
----------------------------
  NO LB      ZA    FRAG     MASS         X           Y           Z
   0 I    53.0000    0   126.900    0.000000    0.000000    0.000000



           ************************************************************
           *        Program running with 6 parallel MPI-processes     *
           *              working on a common directory               *
           ************************************************************
------------------------------------------------------------------------------
                   ___                                                        
                  /   \      - P O W E R E D   B Y -                         
                 /     \                                                     
                 |  |  |   _    _      __       _____    __    __             
                 |  |  |  | |  | |    /  \     |  _  \  |  |  /  |          
                  \  \/   | |  | |   /    \    | | | |  |  | /  /          
                 / \  \   | |__| |  /  /\  \   | |_| |  |  |/  /          
                |  |  |   |  __  | /  /__\  \  |    /   |      \           
                |  |  |   | |  | | |   __   |  |    \   |  |\   \          
                \     /   | |  | | |  |  |  |  | |\  \  |  | \   \       
                 \___/    |_|  |_| |__|  |__|  |_| \__\ |__|  \__/        
                                                                              
                      - O R C A' S   B I G   F R I E N D -                    
                                      &                                       
                       - I N T E G R A L  F E E D E R -                       
                                                                              
 v1 FN, 2020, v2 2021                                                         
------------------------------------------------------------------------------


Reading SHARK input file i-anion_lw1x-jun_Compound_1.SHARKINP.tmp ... ok
----------------------
SHARK INTEGRAL PACKAGE
----------------------

Number of atoms                             ...      1
Number of basis functions                   ...     52
Number of shells                            ...     18
Maximum angular momentum                    ...      3
Integral batch strategy                     ... SHARK/LIBINT Hybrid
RI-J (if used) integral strategy            ... SPLIT-RIJ (Revised 2003 algorithm where possible)
Printlevel                                  ...      1
Contraction scheme used                     ... SEGMENTED contraction
Coulomb Range Separation                    ... NOT USED
Exchange Range Separation                   ... NOT USED
Finite Nucleus Model                        ... NOT USED
Auxiliary Coulomb fitting basis             ... AVAILABLE
   # of basis functions in Aux-J            ...    478
   # of shells in Aux-J                     ...     96
   Maximum angular momentum in Aux-J        ...      5
Auxiliary J/K fitting basis                 ... NOT available
Auxiliary Correlation fitting basis         ... AVAILABLE
   # of basis functions in Aux-C            ...    478
   # of shells in Aux-C                     ...     96
   Maximum angular momentum in Aux-C        ...      5
Auxiliary 'external' fitting basis          ... NOT available
Integral threshold                          ...     1.000000e-10
Primitive cut-off                           ...     1.000000e-11
Primitive pair pre-selection threshold      ...     1.000000e-11

Calculating pre-screening integrals         ... done (  4.8 sec) Dimension = 18
Organizing shell pair data                  ... done (  0.0 sec)
Shell pair information
Total number of shell pairs                 ...       171
Shell pairs after pre-screening             ...       171
Total number of primitive shell pairs       ...     30644
Primitive shell pairs kept                  ...     30642
          la=0 lb=0:     28 shell pairs
          la=1 lb=0:     42 shell pairs
          la=1 lb=1:     21 shell pairs
          la=2 lb=0:     28 shell pairs
          la=2 lb=1:     24 shell pairs
          la=2 lb=2:     10 shell pairs
          la=3 lb=0:      7 shell pairs
          la=3 lb=1:      6 shell pairs
          la=3 lb=2:      4 shell pairs
          la=3 lb=3:      1 shell pairs

Calculating one electron integrals          ... done (  0.0 sec)
Calculating RI/J V-Matrix + Cholesky decomp.... done (  0.0 sec)
Calculating RI/C V-Matrix + Cholesky decomp.... done (  0.0 sec)
Calculating Nuclear repulsion               ... done (  0.0 sec) ENN=      0.000000000000 Eh

SHARK setup successfully completed in   5.0 seconds

Maximum memory used throughout the entire GTOINT-calculation: 586.5 MB


           ************************************************************
           *        Program running with 6 parallel MPI-processes     *
           *              working on a common directory               *
           ************************************************************
------------------------------------------------------------------------------
                          ORCA RELATIVISTIC HAMILTONIAN
------------------------------------------------------------------------------

Relativistic Method            ... DKH
Order of DKH treatment         ...   2
Treatment of potential         ... V(e,N)
Eps parameter for DKH          ...   0.00000000010000
Nucleus model                  ... Point Nucleus
Speed of light used            ... 137.03598950000000


            ************************************************
            *        DOUGLAS-KROLL-HESS HAMILTONIAN        *
            *   Programmed by FN according to literature   *
            *        procedures. Special thanks to         *
            *       B.A. Hess, M. Reiher and A. Wolf       *
            *     University Erlangen-Nuernberg/Bonn       *
            ************************************************

Uncontracting the basis (second version)       ... done
Basis set overlap                              ... done
Number of contracted basis functions           ...   52
Number of uncontracted basis functions         ...  168
Initializing the DKH file                      ... done
Calculating the relativistic integrals         ... done
Storing DKH matrices                           ... done
Code used for DKH trafo                        ... ORCA
Computing the DKH transformation               ... done
Storing the transformation variables           ... done
Transforming V and pVp to p**2 space           ... done
First transformation of V and pVp              ... done
Second transformation of Veff                  ... done
Adding kinetic energy                          ... done
Back transformation of Veff to r-space         ... done
Recovering DKH matrices                        ... done
Recontracting the H-matrix (second version)    ... done
Computing the DKH correction to the H-matrix   ... done
Reading the original H-matrix                  ... done
Adding DKH correction to the H-matrix          ... done
Storing the new modified H-matrix              ... done

Maximum memory used throughout the entire REL-calculation: 46.1 MB


           ************************************************************
           *        Program running with 6 parallel MPI-processes     *
           *              working on a common directory               *
           ************************************************************

Diagonalization of the overlap matrix:
Smallest eigenvalue                        ... 6.942e-03
Time for diagonalization                   ...    0.001 sec
Threshold for overlap eigenvalues          ... 1.000e-08
Number of eigenvalues below threshold      ... 0
Time for construction of square roots      ...    0.001 sec
Total time needed                          ...    0.003 sec

Time for model grid setup =    0.036 sec

Loading DKH relativistic densities                 ... done
Calculating cut-offs                               ... done
Initializing the effective Hamiltonian             ... done
Setting up the integral package (SHARK)            ... done
Starting the Coulomb interaction                   ... done (   0.0 sec)
Reading the grid                                   ... done
Mapping shells                                     ... done
Starting the XC term evaluation                    ... done (   0.0 sec)
Transforming the Hamiltonian                       ... done (   0.0 sec)
Diagonalizing the Hamiltonian                      ... done (   0.0 sec)
Back transforming the eigenvectors                 ... done (   0.0 sec)
Now organizing SCF variables                       ... done
--------------------
COSX GRID GENERATION
--------------------

GRIDX 1
-------
General Integration Accuracy     IntAcc      ... 4.020
Radial Grid Type                 RadialGrid  ... OptM3 with GC (2021)
Angular Grid (max. ang.)         AngularGrid ... 2 (Lebedev-110)
Angular grid pruning method      GridPruning ... 4 (adaptive)
Weight generation scheme         WeightScheme... Becke
Basis function cutoff            BFCut       ... 1.0000e-10
Integration weight cutoff        WCut        ... 1.0000e-14
Angular grids for H and He will be reduced by one unit
Partially contracted basis set               ... on
Rotationally invariant grid construction     ... off

Total number of grid points                  ...     3266
Total number of batches                      ...       52
Average number of points per batch           ...       62
Average number of grid points per atom       ...     3266
UseSFitting                                  ... on

GRIDX 2
-------
General Integration Accuracy     IntAcc      ... 4.338
Radial Grid Type                 RadialGrid  ... OptM3 with GC (2021)
Angular Grid (max. ang.)         AngularGrid ... 3 (Lebedev-194)
Angular grid pruning method      GridPruning ... 4 (adaptive)
Weight generation scheme         WeightScheme... Becke
Basis function cutoff            BFCut       ... 1.0000e-10
Integration weight cutoff        WCut        ... 1.0000e-14
Angular grids for H and He will be reduced by one unit
Partially contracted basis set               ... on
Rotationally invariant grid construction     ... off

Total number of grid points                  ...     6724
Total number of batches                      ...      106
Average number of points per batch           ...       63
Average number of grid points per atom       ...     6724
UseSFitting                                  ... on

GRIDX 3
-------
General Integration Accuracy     IntAcc      ... 4.871
Radial Grid Type                 RadialGrid  ... OptM3 with GC (2021)
Angular Grid (max. ang.)         AngularGrid ... 4 (Lebedev-302)
Angular grid pruning method      GridPruning ... 4 (adaptive)
Weight generation scheme         WeightScheme... Becke
Basis function cutoff            BFCut       ... 1.0000e-10
Integration weight cutoff        WCut        ... 1.0000e-14
Angular grids for H and He will be reduced by one unit
Partially contracted basis set               ... on
Rotationally invariant grid construction     ... off

Total number of grid points                  ...    13076
Total number of batches                      ...      205
Average number of points per batch           ...       63
Average number of grid points per atom       ...    13076
UseSFitting                                  ... on

Time for X-Grid setup             =    0.161 sec

 re-compute Schwartz prescreening matrix in partically contracted basis (1) ...done (   0.069 sec)
--------------
SCF ITERATIONS
--------------
ITER       Energy         Delta-E        Max-DP      RMS-DP      [F,P]     Damp
               ***  Starting incremental Fock matrix formation  ***
  0  -7110.8570677299   0.000000000000 0.08571213  0.00356606  0.1240504 0.7000
  1  -7110.8814239550  -0.024356225116 0.06343740  0.00319173  0.0908111 0.7000
                               ***Turning on DIIS***
  2  -7110.8982631133  -0.016839158212 0.14107120  0.00781513  0.0615794 0.0000
  3  -7110.6176649214   0.280598191882 0.02894357  0.00115288  0.0269486 0.0000
                      *** Initiating the SOSCF procedure ***
                           *** Shutting down DIIS ***
                      *** Re-Reading the Fockian *** 
                      *** Removing any level shift *** 
ITER      Energy       Delta-E        Grad      Rot      Max-DP    RMS-DP
  4  -7110.97301467  -0.3553497512  0.003232  0.003232  0.008566  0.000372
               *** Restarting incremental Fock matrix formation ***
  5  -7110.93544161   0.0375730654  0.000782  0.000699  0.003105  0.000118
  6  -7110.93544506  -0.0000034529  0.000301  0.000365  0.000961  0.000043
  7  -7110.93544536  -0.0000002970  0.000043  0.000043  0.000113  0.000006
                 **** Energy Check signals convergence ****
              ***Rediagonalizing the Fockian in SOSCF/NRSCF***

               *****************************************************
               *                     SUCCESS                       *
               *           SCF CONVERGED AFTER   8 CYCLES          *
               *****************************************************

Old exchange energy                            =   -180.620669729 Eh
New exchange energy                            =   -180.620622278 Eh
Exchange energy change after final integration =      0.000047451 Eh
Total energy after final integration           =  -7110.935397905 Eh
Final COS-X integration done in                =     0.242 sec
Total Energy       :        -7110.93539790 Eh         -193498.38945 eV
  Last Energy change         ...    1.2769e-09  Tolerance :   1.0000e-06
  Last MAX-Density change    ...    1.9880e-15  Tolerance :   1.0000e-05
             **** THE GBW FILE WAS UPDATED (i-anion_lw1x-jun_Compound_1.gbw) ****
             **** DENSITY i-anion_lw1x-jun_Compound_1.scfp WAS UPDATED ****
             **** ENERGY FILE WAS UPDATED (i-anion_lw1x-jun_Compound_1.en.tmp) ****
             **** THE GBW FILE WAS UPDATED (i-anion_lw1x-jun_Compound_1.gbw) ****
             **** DENSITY i-anion_lw1x-jun_Compound_1.scfp WAS UPDATED ****
----------------
ORBITAL ENERGIES
----------------

  NO   OCC          E(Eh)            E(eV) 
   0   2.0000   -1223.799685    -33301.2824 
   1   2.0000    -192.516300     -5238.6348 
   2   2.0000    -172.701316     -4699.4417 
   3   2.0000    -172.701316     -4699.4417 
   4   2.0000    -172.701316     -4699.4417 
   5   2.0000     -40.176723     -1093.2642 
   6   2.0000     -33.572228      -913.5468 
   7   2.0000     -33.572228      -913.5468 
   8   2.0000     -33.572228      -913.5468 
   9   2.0000     -23.614249      -642.5764 
  10   2.0000     -23.614249      -642.5764 
  11   2.0000     -23.614249      -642.5764 
  12   2.0000     -23.614249      -642.5764 
  13   2.0000     -23.614249      -642.5764 
  14   2.0000      -7.431644      -202.2253 
  15   2.0000      -5.270274      -143.4114 
  16   2.0000      -5.270274      -143.4114 
  17   2.0000      -5.270274      -143.4114 
  18   2.0000      -1.988862       -54.1197 
  19   2.0000      -1.988862       -54.1197 
  20   2.0000      -1.988862       -54.1197 
  21   2.0000      -1.988862       -54.1197 
  22   2.0000      -1.988862       -54.1197 
  23   2.0000      -0.590140       -16.0585 
  24   2.0000      -0.113041        -3.0760 
  25   2.0000      -0.113041        -3.0760 
  26   2.0000      -0.113040        -3.0760 
  27   0.0000       0.528455        14.3800 
  28   0.0000       0.599158        16.3039 
  29   0.0000       0.599158        16.3039 
  30   0.0000       0.599158        16.3039 
  31   0.0000       0.644210        17.5298 
  32   0.0000       0.644210        17.5298 
  33   0.0000       0.644210        17.5298 
  34   0.0000       0.644210        17.5298 
  35   0.0000       0.644210        17.5298 
  36   0.0000       1.435844        39.0713 
  37   0.0000       1.435844        39.0713 
  38   0.0000       1.435844        39.0713 
  39   0.0000       1.435844        39.0713 
  40   0.0000       1.435844        39.0713 
  41   0.0000       1.435844        39.0713 
  42   0.0000       1.435844        39.0713 
  43   0.0000       1.871970        50.9389 
  44   0.0000       1.871970        50.9389 
  45   0.0000       1.871970        50.9389 
  46   0.0000       1.871970        50.9389 
  47   0.0000       1.871970        50.9389 
  48   0.0000       2.118095        57.6363 
  49   0.0000       2.118095        57.6363 
  50   0.0000       2.118095        57.6363 
  51   0.0000       2.378854        64.7319 
Total SCF time: 0 days 0 hours 0 min 3 sec 

Maximum memory used throughout the entire SCF-calculation: 73.0 MB


           ************************************************************
           *        Program running with 6 parallel MPI-processes     *
           *              working on a common directory               *
           ************************************************************

------------------------------------------------------------------------------
                                ORCA  MP2 
------------------------------------------------------------------------------

Freezing NCore=36 chemical core electrons
Initializing SHARK ... done


------------------------------------------------------------------------------
                           ORCA ORBITAL LOCALIZATION
------------------------------------------------------------------------------

Input orbitals are from                  ... i-anion_lw1x-jun_Compound_1.gbw
Output orbitals are to                   ... i-anion_lw1x-jun_Compound_1.loc
Max. number of iterations                ... 128
Localizations seeded randomly            ... off
Convergence tolerance                    ... 1.000e-06
Treshold for strong local MOs            ... 9.500e-01
Treshold for bond MOs                    ... 8.500e-01
Operator                                 ... 0
Orbital range for localization           ... 18 to 26
Localization criterion                   ... FOSTER-BOYS (AUGMENTED HESSIAN)
Doing the dipole integrals     ... o.k.
Initial value of the localization sum :     0.000000
ITERATION   0 : L=    2.0043019857 DL=  2.00e+00 (AVERGE_DL)=    0.2359556211 
ITERATION   1 : L=    4.4997435661 DL=  2.50e+00 (AVERGE_DL)=    0.2632827789 
ITERATION   2 : L=    5.1425221344 DL=  6.43e-01 (AVERGE_DL)=    0.1336224541 
ITERATION   3 : L=    5.1926059086 DL=  5.01e-02 (AVERGE_DL)=    0.0372990074 
ITERATION   4 : L=    5.1955069185 DL=  2.90e-03 (AVERGE_DL)=    0.0089768374 
ITERATION   5 : L=    5.1958590460 DL=  3.52e-04 (AVERGE_DL)=    0.0031275100 
ITERATION   6 : L=    5.1960148203 DL=  1.56e-04 (AVERGE_DL)=    0.0020801598 
ITERATION   7 : L=    5.1961025300 DL=  8.77e-05 (AVERGE_DL)=    0.0015608911 
ITERATION   8 : L=    5.1961356641 DL=  3.31e-05 (AVERGE_DL)=    0.0009593704 
ITERATION   9 : L=    5.1961458456 DL=  1.02e-05 (AVERGE_DL)=    0.0005318064 
ITERATION  10 : L=    5.1961500993 DL=  4.25e-06 (AVERGE_DL)=    0.0003437423 
ITERATION  11 : L=    5.1961527918 DL=  2.69e-06 (AVERGE_DL)=    0.0002734817 
ITERATION  12 : L=    5.1961549104 DL=  2.12e-06 (AVERGE_DL)=    0.0002425909 
ITERATION  13 : L=    5.1961567057 DL=  1.80e-06 (AVERGE_DL)=    0.0002233112 
ITERATION  14 : L=    5.1961582577 DL=  1.55e-06 (AVERGE_DL)=    0.0002076357 
ITERATION  15 : L=    5.1961596005 DL=  1.34e-06 (AVERGE_DL)=    0.0001931321 
ITERATION  16 : L=    5.1961607572 DL=  1.16e-06 (AVERGE_DL)=    0.0001792458 
ITERATION  17 : L=    5.1961617495 DL=  9.92e-07 (AVERGE_DL)=    0.0001660280 
LOCALIZATION SUM CONVERGED

------------------------------------------------------
AUGMENTED HESSIAN OPTIMIZATION OF FOSTER-BOYS ORBITALS
------------------------------------------------------

Spin operator:           0
Orbital window:          18 to 26
Number of iterations:    128
Gradient tolerance:      1.000e-06
Number of pairs:         36
Davidson threshold:      2000
Diagonalization method:  LAPACK
Iter:    0   L: 5.1961617495   Grad. norm: 7.509137e-04
   *** Detected a saddle point. ***
       Augmented Hessian eigenvalues:  1.71e-05  1.67e-06  6.82e-07  5.06e-07 ... 
Iter:    1   L: 5.1961605899   Grad. norm: 7.602620e-03
Iter:    2   L: 5.1961627287   Grad. norm: 4.142877e-03
Iter:    3   L: 5.1961654023   Grad. norm: 3.622002e-03
Iter:    4   L: 5.1961660492   Grad. norm: 3.248572e-03
Iter:    5   L: 5.1961664820   Grad. norm: 2.994617e-03
Iter:    6   L: 5.1961682548   Grad. norm: 1.809505e-03
Iter:    7   L: 5.1961686496   Grad. norm: 1.447910e-03
Iter:    8   L: 5.1961687977   Grad. norm: 1.342004e-03
Iter:    9   L: 5.1961688315   Grad. norm: 1.344819e-03
Iter:   10   L: 5.1961690558   Grad. norm: 1.250557e-03
Iter:   11   L: 5.1961692522   Grad. norm: 1.216533e-03
Iter:   12   L: 5.1961694867   Grad. norm: 1.207781e-03
Iter:   13   L: 5.1961695977   Grad. norm: 1.220420e-03
Iter:   14   L: 5.1961698822   Grad. norm: 1.183622e-03
Iter:   15   L: 5.1961700548   Grad. norm: 1.200168e-03
Iter:   16   L: 5.1961702979   Grad. norm: 1.111168e-03
Iter:   17   L: 5.1961704070   Grad. norm: 1.114830e-03
Iter:   18   L: 5.1961705582   Grad. norm: 9.981845e-04
Iter:   19   L: 5.1961706650   Grad. norm: 8.096672e-04
Iter:   20   L: 5.1961707420   Grad. norm: 6.856353e-04
Iter:   21   L: 5.1961708495   Grad. norm: 6.066314e-04
Iter:   22   L: 5.1961708758   Grad. norm: 5.221498e-04
Iter:   23   L: 5.1961709219   Grad. norm: 3.231855e-04
Iter:   24   L: 5.1961709103   Grad. norm: 4.713235e-04
Iter:   25   L: 5.1961709331   Grad. norm: 2.561700e-04
Iter:   26   L: 5.1961709191   Grad. norm: 4.680331e-04
Iter:   27   L: 5.1961709418   Grad. norm: 6.484276e-06
Iter:   28   L: 5.1961709306   Grad. norm: 3.380060e-04
Iter:   29   L: 5.1961709265   Grad. norm: 3.935757e-04
Iter:   30   L: 5.1961709424   Grad. norm: 4.764852e-05
Iter:   31   L: 5.1961709416   Grad. norm: 1.083437e-04
Iter:   32   L: 5.1961709420   Grad. norm: 8.295795e-05
Iter:   33   L: 5.1961709427   Grad. norm: 2.646069e-05
   *** Likely close to a maximum now. ***
       Augmented Hessian eigenvalues:  1.63e-10 -7.89e-09 -7.91e-07 -1.30e-06 ... 
Iter:   34   L: 5.1961709428   Grad. norm: 4.637606e-07
LOCALIZATION HAS CONVERGED.

Eigenvalues of the Hessian:
  0 -8.105e-09
  1 -7.920e-07
  2 -1.304e-06
  3 -2.936e-03
  4 -4.819e-03
  5 -5.793e-03
  6 -6.305e-03
  7 -1.753e-02
  8 -4.509e-02
  9 -6.211e-02
    ...


------------------------------------------------------------------------------- 
                    LOCALIZED MOLECULAR ORBITAL COMPOSITIONS                   
------------------------------------------------------------------------------- 

The Mulliken populations for each LMO on each atom are computed
The LMO`s will be ordered according to atom index and type
  (A) Strongly localized MO`s have populations of >=0.950 on one atom
  (B) Two center bond orbitals have populations of >=0.850 on two atoms
  (C) Other MO`s are considered to be `delocalized`

FOUND  -   9 strongly local MO`s
       -   0 two center bond MO`s
       -   0 significantly delocalized MO`s

Rather strongly localized orbitals:
MO  26:   0I  -   1.000000
MO  25:   0I  -   1.000000
MO  24:   0I  -   1.000000
MO  23:   0I  -   1.000000
MO  22:   0I  -   1.000000
MO  21:   0I  -   1.000000
MO  20:   0I  -   1.000000
MO  19:   0I  -   1.000000
MO  18:   0I  -   1.000000
Localized MO's were stored in: i-anion_lw1x-jun_Compound_1.loc



Calculating differential overlap integrals ... ok
Threshold for domain construction in prescreening: TCutDOPre = 3.0e-02

--------------------------
ELECTRON PAIR PRESCREENING
--------------------------

Dipole-based pair screening          .... used

   TCutDOij = 1.000000e-05
   TCutPre  = 1.000000e-06
   .... Finished loop over pairs
Total time spent in the prescreening                  ...     0.000 sec
sum of pair energies estimated for screened out pairs ...       0.000000000000 Eh

---------------------------
MAP CONSTRUCTION THRESHOLDS
---------------------------
    TCutMKN     ...     1.0e-03
    TCutDO      ...     5.0e-03
    TCutC(MO)   ...     1.0e-03
    TCutC(PAO)  ...     1.0e-03

--------------------------------
LOCAL RI TRANSFORMATION (IAVPAO)
--------------------------------

Orbital window:      18 to 26
Number of PAOs:      52
Basis functions:     52 (18 shells)
Aux. functions:     478 (96 shells)
Use SHARK:           on

Processing maps (0.0 sec)
Average map sizes:
   Aux shells -> MOs               9.0
   Aux shells -> PAOs             52.0
   MOs        -> AO shells        18.0
   PAOs       -> AO shells        18.0

Calculating integrals (0.2 sec, 1.712 MB)
Sorting integrals (0.0 sec, 1.707 MB)
Total time for the integral transformation: 0.2 sec

----------------------------
Local MP2 Energy Calculation
----------------------------
Number of orbital pairs included:     45
Truncation parameters:
    PAOOverlapThresh    =        1.000e-08
    TCutPNO             =        1.000e-09

Spin component scaling                      .... not used
MP2 energy scaling factor                   .... 1.000

Formation of semicanonical amplitudes.
 10% done.
 20% done.
 30% done.
 40% done.
 50% done.
 60% done.
 70% done.
 80% done.
 90% done.
100% done.

Finished the LMP2 guess in 0.1 sec.

Average number of PAOs per pair         52.0
Average number of nrPAOs per pair       25.0
Average number of PNOs per pair         24.9
Average number of AUX  per pair        478.0

Semicanonical MP2 energy:                   -0.191174165808 Eh
Semicanonical MP2 energy in PNO basis:      -0.191174150468 Eh

Initial amplitudes guess done. Entering DLPNO-MP2 iteration loop:
   Max. no of iterations          ...  100
   Energy convergence tolerance   ...    1.0e-06 Eh
   Residual convergence tolerance ...    5.0e-06
   Fock matrix cutoff             ...    1.0e-05 Eh
   Max # vectors in DIIS          ...  7
   Start iteration of DIIS        ...  0
   Levelshift                     ...  2.000e-01 Eh
   Damping before turning on DIIS ...  5.000e-01
   Damping after turning on DIIS  ...  0.000e+00

                           *** Turning on DIIS ***
Iter=   0:  ECORR= -0.202010383834  DE=   1.1e-02 RMAX=   1.3e-02
Iter=   1:  ECORR= -0.210669387051  DE=   8.7e-03 RMAX=   4.8e-03
Iter=   2:  ECORR= -0.213038033959  DE=   2.4e-03 RMAX=   1.4e-03
Iter=   3:  ECORR= -0.213164694898  DE=   1.3e-04 RMAX=   1.5e-04
Iter=   4:  ECORR= -0.213169605063  DE=   4.9e-06 RMAX=   2.3e-05
Iter=   5:  ECORR= -0.213170171013  DE=   5.7e-07 RMAX=   6.0e-06
Iter=   6:  ECORR= -0.213170125541  DE=   4.5e-08 RMAX=   1.8e-06 => CONVERGED

Finished the DLPNO-MP2 iterations in 0.0 sec.

LMP2 correlation energy (all non-screened pairs)      ...     -0.213170125541 Eh
Semicanonical PNO correction to energy                ...     -0.000000015340 Eh
Sum of pair energies estimated for screened out pairs ...      0.000000000000 Eh
                                                         -----------------------
Total:                                                ...     -0.213170140882 Eh

------------------------------------------------------
 DLPNO-MP2 CORRELATION ENERGY:      -0.213170140882 Eh
------------------------------------------------------

TIMINGS FOR DLPNO-MP2:
Localization                             ...        0.619 sec
Differential overlap integrals           ...        0.732 sec
Prescreening                             ...        0.507 sec
Map setup                                ...        0.000 sec
(ia|v) trafo                             ...        0.206 sec
Semicanonical amplitudes                 ...        0.057 sec
PNO construction                         ...        0.003 sec
DLPNO-MP2 iterations                     ...        0.044 sec
                                             ----------------
Total time                                          2.906 sec


---------------------------------------
MP2 TOTAL ENERGY:    -7111.148568046 Eh
---------------------------------------

Maximum memory used throughout the entire MP2-calculation: 1254.9 MB

-------------------------   --------------------
FINAL SINGLE POINT ENERGY     -7111.148568045677
-------------------------   --------------------


                            ***************************************
                            *     ORCA property calculations      *
                            ***************************************


  WARNING: The energy has been calculated at the MP2 level but the densities
           used in the property calculations are still SCF densities
           MP2 response densities have not been calculated 
           use %mp2 Density relaxed end
           or  %mp2 Density unrelaxed end

                                    ---------------------
                                    Active property flags
                                    ---------------------
   (+) Dipole Moment


------------------------------------------------------------------------------
                       ORCA ELECTRIC PROPERTIES CALCULATION
------------------------------------------------------------------------------

Dipole Moment Calculation                       ... on
Quadrupole Moment Calculation                   ... off
Polarizability Calculation                      ... off
GBWName                                         ... i-anion_lw1x-jun_Compound_1.gbw
Electron density                                ... i-anion_lw1x-jun_Compound_1.scfp
The origin for moment calculation is the CENTER OF MASS  = ( 0.000000,  0.000000  0.000000)

-------------
DIPOLE MOMENT
-------------
                                X             Y             Z
Electronic contribution:     -0.00000       0.00000       0.00000
Nuclear contribution   :      0.00000       0.00000       0.00000
                        -----------------------------------------
Total Dipole Moment    :     -0.00000       0.00000       0.00000
                        -----------------------------------------
Magnitude (a.u.)       :      0.00000
Magnitude (Debye)      :      0.00001



--------------------
Rotational spectrum 
--------------------
 
Rotational constants in cm-1:     0.000000     0.000000     0.000000 
Rotational constants in MHz :     0.000000     0.000000     0.000000 

 Dipole components along the rotational axes: 
x,y,z [a.u.] :    -0.000003     0.000004     0.000000 
x,y,z [Debye]:    -0.000007     0.000009     0.000000 

 

Timings for individual modules:

Sum of individual times         ...       18.801 sec (=   0.313 min)
GTO integral calculation        ...        5.935 sec (=   0.099 min)  31.6 %
Relativistic integrals          ...        1.033 sec (=   0.017 min)   5.5 %
SCF iterations                  ...        4.187 sec (=   0.070 min)  22.3 %
MP2 module                      ...        7.646 sec (=   0.127 min)  40.7 %


################################################################################


                                COMPOUND JOB  2 
Basename: i-anion_lw1x-jun_Compound_2
NOTE: please remember that MaxCore and PAL settings will be ignored.

################################################################################

================================================================================
                                       INPUT FILE
================================================================================
NAME = i-anion_lw1x-jun_Compound_2.inp
|  1>     ! DefGrid3 RIJCOSX TightPNO DLPNO-MP2 MiniPrint NoPop
|  2>     %Basis
|  3>       Basis         "cc-pVTZ"
|  4>       AuxJ          "AutoAux"
|  5>       AuxC          "AutoAux"
|  6>       CABS          "AutoAux"
|  7>       NewECP     Ga "SK-MCDHF-RSC" End
|  8>       NewGTO     Ga "cc-pVTZ-PP"   End
|  9>       NewAuxjGTO Ga "AutoAux" End
| 10>       NewAuxcGTO Ga "AutoAux" End
| 11>       NewCabsGTO Ga "AutoAux" End
| 12>       NewECP     Ge "SK-MCDHF-RSC" End
| 13>       NewGTO     Ge "cc-pVTZ-PP"   End
| 14>       NewAuxjGTO Ge "AutoAux" End
| 15>       NewAuxcGTO Ge "AutoAux" End
| 16>       NewCabsGTO Ge "AutoAux" End
| 17>       NewECP     As "SK-MCDHF-RSC" End
| 18>       NewGTO     As "cc-pVTZ-PP"   End
| 19>       NewAuxjGTO As "AutoAux" End
| 20>       NewAuxcGTO As "AutoAux" End
| 21>       NewCabsGTO As "AutoAux" End
| 22>       NewECP     Se "SK-MCDHF-RSC" End
| 23>       NewGTO     Se "cc-pVTZ-PP"   End
| 24>       NewAuxjGTO Se "AutoAux" End
| 25>       NewAuxcGTO Se "AutoAux" End
| 26>       NewCabsGTO Se "AutoAux" End
| 27>       NewECP     Br "SK-MCDHF-RSC" End
| 28>       NewGTO     Br "cc-pVTZ-PP"   End
| 29>       NewAuxjGTO Br "AutoAux" End
| 30>       NewAuxcGTO Br "AutoAux" End
| 31>       NewCabsGTO Br "AutoAux" End
| 32>       NewECP     Kr "SK-MCDHF-RSC" End
| 33>       NewGTO     Kr "cc-pVTZ-PP"   End
| 34>       NewAuxjGTO Kr "AutoAux" End
| 35>       NewAuxcGTO Kr "AutoAux" End
| 36>       NewCabsGTO Kr "AutoAux" End
| 37>       NewECP     In "SK-MCDHF-RSC" End
| 38>       NewGTO     In "cc-pVTZ-PP"   End
| 39>       NewAuxjGTO In "AutoAux" End
| 40>       NewAuxcGTO In "AutoAux" End
| 41>       NewCabsGTO In "AutoAux" End
| 42>       NewECP     Sn "SK-MCDHF-RSC" End
| 43>       NewGTO     Sn "cc-pVTZ-PP"   End
| 44>       NewAuxjGTO Sn "AutoAux" End
| 45>       NewAuxcGTO Sn "AutoAux" End
| 46>       NewCabsGTO Sn "AutoAux" End
| 47>       NewECP     Sb "SK-MCDHF-RSC" End
| 48>       NewGTO     Sb "cc-pVTZ-PP"   End
| 49>       NewAuxjGTO Sb "AutoAux" End
| 50>       NewAuxcGTO Sb "AutoAux" End
| 51>       NewCabsGTO Sb "AutoAux" End
| 52>       NewECP     Te "SK-MCDHF-RSC" End
| 53>       NewGTO     Te "cc-pVTZ-PP"   End
| 54>       NewAuxjGTO Te "AutoAux" End
| 55>       NewAuxcGTO Te "AutoAux" End
| 56>       NewCabsGTO Te "AutoAux" End
| 57>       NewECP     I  "SK-MCDHF-RSC" End
| 58>       NewGTO     I  "cc-pVTZ-PP"   End
| 59>       NewAuxjGTO I  "AutoAux" End
| 60>       NewAuxcGTO I  "AutoAux" End
| 61>       NewCabsGTO I  "AutoAux" End
| 62>       NewECP     Xe "SK-MCDHF-RSC" End
| 63>       NewGTO     Xe "cc-pVTZ-PP"   End
| 64>       NewAuxjGTO Xe "AutoAux" End
| 65>       NewAuxcGTO Xe "AutoAux" End
| 66>       NewCabsGTO Xe "AutoAux" End
| 67>     End
| 68> 
| 69>                          ****END OF INPUT****
================================================================================
Warning! AutoAux has not been tested for CABS - use at your own risk!
================================================================================

cite the ECPs for I  [SK MCDHF RSC] as follows:
O: B. Metz and H. Stoll, private communication (KAP)
Tl: B. Metz, M. Schweizer, H. Stoll, M. Dolg, W. Liu, Theor. Chem. Acc. 104, 22 (2000)
Ga-As, In-Sb, Pb-Bi: B. Metz, H. Stoll, M. Dolg, J. Chem. Phys. 113, 2563 (2000)
Se-Kr, Te-Xe, Po-Rn: K.A. Peterson, D. Figgen, E. Goll, H. Stoll, and M. Dolg, J. Chem. Phys., in press (2003)
Cu-Zn, Ag-Cd, Au-Hg: D. Figgen, G. Rauhut, M. Dolg, and H. Stoll, Chem. Phys. 311, 227 (2005)
Y-Pd: K.A. Peterson, D. Figgen, M. Dolg, H. Stoll, J. Chem. Phys. 126, 124101 (2007)
I: K. A. Peterson, B. C. Shepler, D. Figgen, H. Stoll, J. Phys. Chem. A 110, 13877 (2006)
Hf-Pt: D. Figgen, K.A. Peterson, M. Dolg, H. Stoll, J. Chem. Phys. 130, 164108 (2009)
Ca, Sr, Ba, Ra: I.S. Lim, H. Stoll, P. Schwerdtfeger, J. Chem. Phys. 124, 034107 (2006)
U: M. Dolg, X. Cao, J. Phys. Chem. A 113, 12573 (2009)

ECP parameters for I  [SK MCDHF RSC] have been obtained from:
cc-pVDZ-PP  EMSL  Basis Set Exchange Library   4/7/16 5:27 AM
Ca, Sr, Ba, Ra: http://www.tc.uni-koeln.de/PP/index.en.html 3/16/17 1:54 PM


----- Orbital basis set information -----
Your calculation utilizes the basis: cc-pVTZ 
       H, B-Ne : Obtained from the ccRepo (grant-hill.group.shef.ac.uk/ccrepo) Feb. 2017
                 T. H. Dunning, Jr., J. Chem. Phys. 90, 1007 (1989)
            He : Obtained from the ccRepo (grant-hill.group.shef.ac.uk/ccrepo) Feb. 2017
                 D. E. Woon, T. H. Dunning, Jr., J. Chem. Phys. 100, 2975 (1994)
  Li-Be, Na-Mg : Obtained from the ccRepo (grant-hill.group.shef.ac.uk/ccrepo) Feb. 2017
                 B. P. Prascher, D. E. Woon, K. A. Peterson, T. H. Dunning, Jr., A. K. Wilson, Theor. Chem. Acc. 128, 69 (2011)
         Al-Ar : Obtained from the ccRepo (grant-hill.group.shef.ac.uk/ccrepo) Feb. 2017
                 D. E. Woon, T. H. Dunning, Jr., J. Chem. Phys. 98, 1358 (1993)
            Ca : Obtained from the Peterson Research Group Website (tyr0.chem.wsu.edu/~kipeters) Feb. 2017
                 J. Koput, K. A. Peterson, J. Phys. Chem. 106, 9595 (2002)
         Sc-Zn : Obtained from the ccRepo (grant-hill.group.shef.ac.uk/ccrepo) Feb. 2017
                 N. B. Balabanov, K. A. Peterson, J. Chem. Phys. 123, 064107 (2005)
                 N. B. Balabanov, K. A. Peterson, J. Chem. Phys. 125, 074110 (2006)
         Ga-Kr : Obtained from the ccRepo (grant-hill.group.shef.ac.uk/ccrepo) Feb. 2017
                 A. K. Wilson, D. E. Woon, K. A. Peterson, T. H. Dunning, Jr., J. Chem. Phys. 110, 7667 (1999)
             Y : Obtained from the ccRepo (grant-hill.group.shef.ac.uk/ccrepo) Feb. 2017
                 K. A. Peterson, D. Figgen, M. Dolg, H. Stoll, J. Chem. Phys. 126, 124101 (2007)
        Ag, Au : Obtained from the Peterson Research Group Website (tyr0.chem.wsu.edu/~kipeters) Feb. 2017
                 K. A. Peterson, C. Puzzarini, Theor. Chem. Acc. 114, 283 (2005)

The basis set includes element-specific modifications.

Your calculation utilizes the basis: cc-pVTZ-PP 
       Ca, Sr, Ba, Ra : Obtained from the Peterson Research Group Website (tyr0.chem.wsu.edu/~kipeters) Feb. 2017
                        H. Li, H. Feng, W. Sun, Y. Zhang, Q. Fan, K. A. Peterson, Y. Xie, H. F. Schaefer III, Mol. Phys. 111, 2292 (2013)
  Cu-Zn, Ag-Cd, Au-Hg : Obtained from the ccRepo (grant-hill.group.shef.ac.uk/ccrepo) Feb. 2017
                        K. A. Peterson, C. Puzzarini, Theor. Chem. Acc. 114, 283 (2005)
  Ga-Kr, In-Xe, Tl-Rn : Obtained from the ccRepo (grant-hill.group.shef.ac.uk/ccrepo) Feb. 2017
                        K. A. Peterson, J. Chem. Phys. 119, 11099 (2003)
                        K. A. Peterson, D. Figgen, E. Goll, H. Stoll, M. Dolg, J. Chem. Phys. 119, 11113 (2003)
                 Y-Pd : Obtained from the ccRepo (grant-hill.group.shef.ac.uk/ccrepo) Feb. 2017
                        K. A. Peterson, D. Figgen, M. Dolg, H. Stoll, J. Chem. Phys. 126, 124101 (2007)
                Hf-Pt : Obtained from the ccRepo (grant-hill.group.shef.ac.uk/ccrepo) Feb. 2017
                        D. Figgen, K. A. Peterson, M. Dolg, H. Stoll, J. Chem. Phys. 130, 164108 (2009)
                    U : Obtained from the ccRepo (grant-hill.group.shef.ac.uk/ccrepo) Feb. 2020
                        K. A. Peterson, J. Chem. Phys. 142, 074105 (2015)

----- AuxJ basis set information -----
Your calculation utilizes the AutoAux generation procedure.
  G. L. Stoychev, A. A. Auer, F. Neese, J. Chem. Theory Comput. 13, 554 (2017)

The basis set includes element-specific modifications.

----- AuxC basis set information -----
Your calculation utilizes the AutoAux generation procedure.
  G. L. Stoychev, A. A. Auer, F. Neese, J. Chem. Theory Comput. 13, 554 (2017)

The basis set includes element-specific modifications.

----- CABS information -----
Your calculation utilizes the AutoAux generation procedure.
  G. L. Stoychev, A. A. Auer, F. Neese, J. Chem. Theory Comput. 13, 554 (2017)

The basis set includes element-specific modifications.


                    <<< The CABS basis set will be decontracted >>>

================================================================================
                                        WARNINGS
                       Please study these warnings very carefully!
================================================================================


WARNING: No MP2 level density has been requested!
         To caclulate MP2 level properties use
         %mp2 Density relaxed end
         or
         %mp2 Density unrelaxed end

WARNING: Post HF methods need fully converged wavefunctions
  ===> : Setting SCFConvForced true
         You can overwrite this default with %scf ConvForced false 


INFO   : the flag for use of the SHARK integral package has been found!


                       ****************************
                       * Single Point Calculation *
                       ****************************

---------------------------------
CARTESIAN COORDINATES (ANGSTROEM)
---------------------------------
  I      0.000000    0.000000    0.000000

----------------------------
CARTESIAN COORDINATES (A.U.)
----------------------------
  NO LB      ZA    FRAG     MASS         X           Y           Z
   0 I    25.0000*   0   126.900    0.000000    0.000000    0.000000
* core charge reduced due to ECP



           ************************************************************
           *        Program running with 6 parallel MPI-processes     *
           *              working on a common directory               *
           ************************************************************
------------------------------------------------------------------------------
                   ___                                                        
                  /   \      - P O W E R E D   B Y -                         
                 /     \                                                     
                 |  |  |   _    _      __       _____    __    __             
                 |  |  |  | |  | |    /  \     |  _  \  |  |  /  |          
                  \  \/   | |  | |   /    \    | | | |  |  | /  /          
                 / \  \   | |__| |  /  /\  \   | |_| |  |  |/  /          
                |  |  |   |  __  | /  /__\  \  |    /   |      \           
                |  |  |   | |  | | |   __   |  |    \   |  |\   \          
                \     /   | |  | | |  |  |  |  | |\  \  |  | \   \       
                 \___/    |_|  |_| |__|  |__|  |_| \__\ |__|  \__/        
                                                                              
                      - O R C A' S   B I G   F R I E N D -                    
                                      &                                       
                       - I N T E G R A L  F E E D E R -                       
                                                                              
 v1 FN, 2020, v2 2021                                                         
------------------------------------------------------------------------------


Reading SHARK input file i-anion_lw1x-jun_Compound_2.SHARKINP.tmp ... ok
----------------------
SHARK INTEGRAL PACKAGE
----------------------

Number of atoms                             ...      1
Number of basis functions                   ...     39
Number of shells                            ...     13
Maximum angular momentum                    ...      3
Integral batch strategy                     ... SHARK/LIBINT Hybrid
RI-J (if used) integral strategy            ... SPLIT-RIJ (Revised 2003 algorithm where possible)
Printlevel                                  ...      1
Contraction scheme used                     ... SEGMENTED contraction
Coulomb Range Separation                    ... NOT USED
Exchange Range Separation                   ... NOT USED
Finite Nucleus Model                        ... NOT USED
Auxiliary Coulomb fitting basis             ... AVAILABLE
   # of basis functions in Aux-J            ...    260
   # of shells in Aux-J                     ...     52
   Maximum angular momentum in Aux-J        ...      5
Auxiliary J/K fitting basis                 ... NOT available
Auxiliary Correlation fitting basis         ... AVAILABLE
   # of basis functions in Aux-C            ...    260
   # of shells in Aux-C                     ...     52
   Maximum angular momentum in Aux-C        ...      5
Auxiliary 'external' fitting basis          ... NOT available
Integral threshold                          ...     1.000000e-10
Primitive cut-off                           ...     1.000000e-11
Primitive pair pre-selection threshold      ...     1.000000e-11

Calculating pre-screening integrals         ... done (  0.1 sec) Dimension = 13
Organizing shell pair data                  ... done (  0.0 sec)
Shell pair information
Total number of shell pairs                 ...        91
Shell pairs after pre-screening             ...        91
Total number of primitive shell pairs       ...      1491
Primitive shell pairs kept                  ...      1491
          la=0 lb=0:     15 shell pairs
          la=1 lb=0:     20 shell pairs
          la=1 lb=1:     10 shell pairs
          la=2 lb=0:     15 shell pairs
          la=2 lb=1:     12 shell pairs
          la=2 lb=2:      6 shell pairs
          la=3 lb=0:      5 shell pairs
          la=3 lb=1:      4 shell pairs
          la=3 lb=2:      3 shell pairs
          la=3 lb=3:      1 shell pairs

Calculating one electron integrals          ... done (  0.0 sec)
Calculating ECP integrals                   ... done (  0.0 sec)
Calculating RI/J V-Matrix + Cholesky decomp.... done (  0.0 sec)
Calculating RI/C V-Matrix + Cholesky decomp.... done (  0.0 sec)
Calculating Nuclear repulsion               ... done (  0.0 sec) ENN=      0.000000000000 Eh

SHARK setup successfully completed in   0.2 seconds

Maximum memory used throughout the entire GTOINT-calculation: 22.8 MB


           ************************************************************
           *        Program running with 6 parallel MPI-processes     *
           *              working on a common directory               *
           ************************************************************

Diagonalization of the overlap matrix:
Smallest eigenvalue                        ... 7.547e-03
Time for diagonalization                   ...    0.001 sec
Threshold for overlap eigenvalues          ... 1.000e-08
Number of eigenvalues below threshold      ... 0
Time for construction of square roots      ...    0.001 sec
Total time needed                          ...    0.002 sec

Atom 0: N(Shells)= 13 and 18 - projection required
--------------------
COSX GRID GENERATION
--------------------

GRIDX 1
-------
General Integration Accuracy     IntAcc      ... 4.020
Radial Grid Type                 RadialGrid  ... OptM3 with GC (2021)
Angular Grid (max. ang.)         AngularGrid ... 2 (Lebedev-110)
Angular grid pruning method      GridPruning ... 4 (adaptive)
Weight generation scheme         WeightScheme... Becke
Basis function cutoff            BFCut       ... 1.0000e-10
Integration weight cutoff        WCut        ... 1.0000e-14
Angular grids for H and He will be reduced by one unit
Partially contracted basis set               ... on
Rotationally invariant grid construction     ... off

Total number of grid points                  ...     3110
Total number of batches                      ...       49
Average number of points per batch           ...       63
Average number of grid points per atom       ...     3110
UseSFitting                                  ... on

GRIDX 2
-------
General Integration Accuracy     IntAcc      ... 4.338
Radial Grid Type                 RadialGrid  ... OptM3 with GC (2021)
Angular Grid (max. ang.)         AngularGrid ... 3 (Lebedev-194)
Angular grid pruning method      GridPruning ... 4 (adaptive)
Weight generation scheme         WeightScheme... Becke
Basis function cutoff            BFCut       ... 1.0000e-10
Integration weight cutoff        WCut        ... 1.0000e-14
Angular grids for H and He will be reduced by one unit
Partially contracted basis set               ... on
Rotationally invariant grid construction     ... off

Total number of grid points                  ...     6268
Total number of batches                      ...       98
Average number of points per batch           ...       63
Average number of grid points per atom       ...     6268
UseSFitting                                  ... on

GRIDX 3
-------
General Integration Accuracy     IntAcc      ... 4.871
Radial Grid Type                 RadialGrid  ... OptM3 with GC (2021)
Angular Grid (max. ang.)         AngularGrid ... 4 (Lebedev-302)
Angular grid pruning method      GridPruning ... 4 (adaptive)
Weight generation scheme         WeightScheme... Becke
Basis function cutoff            BFCut       ... 1.0000e-10
Integration weight cutoff        WCut        ... 1.0000e-14
Angular grids for H and He will be reduced by one unit
Partially contracted basis set               ... on
Rotationally invariant grid construction     ... off

Total number of grid points                  ...    10976
Total number of batches                      ...      172
Average number of points per batch           ...       63
Average number of grid points per atom       ...    10976
UseSFitting                                  ... on

Time for X-Grid setup             =    0.118 sec

 re-compute Schwartz prescreening matrix in partically contracted basis (1) ...done (   0.078 sec)
--------------
SCF ITERATIONS
--------------
ITER       Energy         Delta-E        Max-DP      RMS-DP      [F,P]     Damp
               ***  Starting incremental Fock matrix formation  ***
  0   -167.3278342389   0.00000000000023.71621959  1.04317047  1.8406957 0.7000
  1   -206.8354333816 -39.50759914274116.63372161  0.72973695  1.1132026 0.7000
  2   -233.4077445029 -26.57231112130711.66204614  0.50984131  0.6472396 0.7000
  3   -251.8199837150 -18.412239212067 8.17281590  0.35631061  0.3795762 0.7000
  4   -264.6805148888 -12.860531173871 5.72614654  0.24917398  0.2310905 0.7000
                               ***Turning on DIIS***
  5   -273.6842055322  -9.003690643395 4.01134867  0.17434566  0.1527843 0.7000
  6   -280.2671408367  -6.582935304478 2.81208501  0.12204761  0.1118402 0.7000
  7   -284.4686500510  -4.201509214279 6.56547620  0.28506848  0.0819370 0.0000
  8   -294.7443442375 -10.275694186531 0.06082626  0.00248735  0.0078509 0.0000
  9   -294.7446442488  -0.000300011253 0.04404032  0.00156825  0.0054054 0.0000
                      *** Initiating the SOSCF procedure ***
                           *** Shutting down DIIS ***
                      *** Re-Reading the Fockian *** 
                      *** Removing any level shift *** 
ITER      Energy       Delta-E        Grad      Rot      Max-DP    RMS-DP
 10   -294.75420218  -0.0095579331  0.003082  0.003082  0.020628  0.000757
               *** Restarting incremental Fock matrix formation ***
 11   -294.73991443   0.0142877542  0.000659  0.000842  0.006083  0.000254
 12   -294.73991722  -0.0000027892  0.000278  0.000567  0.003649  0.000134
 13   -294.73991762  -0.0000004077  0.000035  0.000036  0.000234  0.000011
                 **** Energy Check signals convergence ****
              ***Rediagonalizing the Fockian in SOSCF/NRSCF***

               *****************************************************
               *                     SUCCESS                       *
               *           SCF CONVERGED AFTER  14 CYCLES          *
               *****************************************************

Old exchange energy                            =    -21.233394677 Eh
New exchange energy                            =    -21.233408999 Eh
Exchange energy change after final integration =     -0.000014322 Eh
Total energy after final integration           =   -294.739931954 Eh
Final COS-X integration done in                =     0.090 sec
Total Energy       :         -294.73993195 Eh           -8020.28129 eV
  Last Energy change         ...   -7.6369e-09  Tolerance :   1.0000e-06
  Last MAX-Density change    ...    1.7764e-15  Tolerance :   1.0000e-05
             **** THE GBW FILE WAS UPDATED (i-anion_lw1x-jun_Compound_2.gbw) ****
             **** DENSITY i-anion_lw1x-jun_Compound_2.scfp WAS UPDATED ****
             **** ENERGY FILE WAS UPDATED (i-anion_lw1x-jun_Compound_2.en.tmp) ****
             **** THE GBW FILE WAS UPDATED (i-anion_lw1x-jun_Compound_2.gbw) ****
             **** DENSITY i-anion_lw1x-jun_Compound_2.scfp WAS UPDATED ****
----------------
ORBITAL ENERGIES
----------------

  NO   OCC          E(Eh)            E(eV) 
   0   2.0000      -7.429551      -202.1684 
   1   2.0000      -5.254909      -142.9933 
   2   2.0000      -5.254909      -142.9933 
   3   2.0000      -5.254909      -142.9933 
   4   2.0000      -1.982223       -53.9390 
   5   2.0000      -1.982223       -53.9390 
   6   2.0000      -1.982223       -53.9390 
   7   2.0000      -1.982223       -53.9390 
   8   2.0000      -1.982223       -53.9390 
   9   2.0000      -0.590447       -16.0669 
  10   2.0000      -0.111312        -3.0289 
  11   2.0000      -0.111311        -3.0289 
  12   2.0000      -0.111311        -3.0289 
  13   0.0000       0.456373        12.4185 
  14   0.0000       0.647497        17.6193 
  15   0.0000       0.647497        17.6193 
  16   0.0000       0.647497        17.6193 
  17   0.0000       0.647497        17.6193 
  18   0.0000       0.647497        17.6193 
  19   0.0000       0.672170        18.2907 
  20   0.0000       0.672171        18.2907 
  21   0.0000       0.672171        18.2907 
  22   0.0000       1.438089        39.1324 
  23   0.0000       1.438089        39.1324 
  24   0.0000       1.438089        39.1324 
  25   0.0000       1.438089        39.1324 
  26   0.0000       1.438089        39.1324 
  27   0.0000       1.438089        39.1324 
  28   0.0000       1.438089        39.1324 
  29   0.0000       1.543829        42.0097 
  30   0.0000       1.887189        51.3530 
  31   0.0000       1.887189        51.3530 
  32   0.0000       1.887189        51.3530 
  33   0.0000       1.887189        51.3530 
  34   0.0000       1.887189        51.3530 
  35   0.0000       3.042074        82.7791 
  36   0.0000       3.042075        82.7791 
  37   0.0000       3.042075        82.7791 
  38   0.0000      59.210689      1611.2048 
Total SCF time: 0 days 0 hours 0 min 1 sec 

Maximum memory used throughout the entire SCF-calculation: 61.0 MB


           ************************************************************
           *        Program running with 6 parallel MPI-processes     *
           *              working on a common directory               *
           ************************************************************

------------------------------------------------------------------------------
                                ORCA  MP2 
------------------------------------------------------------------------------

Freezing NCore=8 chemical core electrons
Initializing SHARK ... done


------------------------------------------------------------------------------
                           ORCA ORBITAL LOCALIZATION
------------------------------------------------------------------------------

Input orbitals are from                  ... i-anion_lw1x-jun_Compound_2.gbw
Output orbitals are to                   ... i-anion_lw1x-jun_Compound_2.loc
Max. number of iterations                ... 128
Localizations seeded randomly            ... off
Convergence tolerance                    ... 1.000e-06
Treshold for strong local MOs            ... 9.500e-01
Treshold for bond MOs                    ... 8.500e-01
Operator                                 ... 0
Orbital range for localization           ... 4 to 12
Localization criterion                   ... FOSTER-BOYS (AUGMENTED HESSIAN)
Doing the dipole integrals     ... o.k.
Initial value of the localization sum :     0.000000
ITERATION   0 : L=    3.8395492961 DL=  3.84e+00 (AVERGE_DL)=    0.3265794652 
ITERATION   1 : L=    5.0245380952 DL=  1.18e+00 (AVERGE_DL)=    0.1814286514 
ITERATION   2 : L=    5.1785157900 DL=  1.54e-01 (AVERGE_DL)=    0.0653999862 
ITERATION   3 : L=    5.2020427440 DL=  2.35e-02 (AVERGE_DL)=    0.0255641644 
ITERATION   4 : L=    5.2047068725 DL=  2.66e-03 (AVERGE_DL)=    0.0086025328 
ITERATION   5 : L=    5.2050643674 DL=  3.57e-04 (AVERGE_DL)=    0.0031512559 
ITERATION   6 : L=    5.2051269065 DL=  6.25e-05 (AVERGE_DL)=    0.0013180279 
ITERATION   7 : L=    5.2051476676 DL=  2.08e-05 (AVERGE_DL)=    0.0007594054 
ITERATION   8 : L=    5.2051597116 DL=  1.20e-05 (AVERGE_DL)=    0.0005784095 
ITERATION   9 : L=    5.2051683838 DL=  8.67e-06 (AVERGE_DL)=    0.0004908081 
ITERATION  10 : L=    5.2051750621 DL=  6.68e-06 (AVERGE_DL)=    0.0004307085 
ITERATION  11 : L=    5.2051800623 DL=  5.00e-06 (AVERGE_DL)=    0.0003726833 
ITERATION  12 : L=    5.2051835795 DL=  3.52e-06 (AVERGE_DL)=    0.0003125697 
ITERATION  13 : L=    5.2051858908 DL=  2.31e-06 (AVERGE_DL)=    0.0002533866 
ITERATION  14 : L=    5.2051873176 DL=  1.43e-06 (AVERGE_DL)=    0.0001990807 
ITERATION  15 : L=    5.2051881526 DL=  8.35e-07 (AVERGE_DL)=    0.0001522981 
LOCALIZATION SUM CONVERGED

------------------------------------------------------
AUGMENTED HESSIAN OPTIMIZATION OF FOSTER-BOYS ORBITALS
------------------------------------------------------

Spin operator:           0
Orbital window:          4 to 12
Number of iterations:    128
Gradient tolerance:      1.000e-06
Number of pairs:         36
Davidson threshold:      2000
Diagonalization method:  LAPACK
Iter:    0   L: 5.2051881526   Grad. norm: 1.177240e-03
   *** Detected a saddle point. ***
       Augmented Hessian eigenvalues:  2.30e-06  1.80e-06  2.56e-07  1.77e-07 ... 
Iter:    1   L: 5.2051888745   Grad. norm: 1.390389e-03
Iter:    2   L: 5.2051890231   Grad. norm: 8.310326e-04
Iter:    3   L: 5.2051890200   Grad. norm: 7.034920e-04
Iter:    4   L: 5.2051891118   Grad. norm: 4.664261e-04
Iter:    5   L: 5.2051891003   Grad. norm: 5.040401e-04
Iter:    6   L: 5.2051891012   Grad. norm: 4.762179e-04
Iter:    7   L: 5.2051891233   Grad. norm: 4.537573e-04
Iter:    8   L: 5.2051891247   Grad. norm: 5.323951e-04
Iter:    9   L: 5.2051891035   Grad. norm: 6.664853e-04
Iter:   10   L: 5.2051890932   Grad. norm: 7.017300e-04
Iter:   11   L: 5.2051891260   Grad. norm: 4.544618e-04
Iter:   12   L: 5.2051891172   Grad. norm: 6.250602e-04
Iter:   13   L: 5.2051891228   Grad. norm: 5.714778e-04
Iter:   14   L: 5.2051891174   Grad. norm: 5.854681e-04
Iter:   15   L: 5.2051891101   Grad. norm: 6.405379e-04
Iter:   16   L: 5.2051891195   Grad. norm: 5.255167e-04
Iter:   17   L: 5.2051891103   Grad. norm: 5.717028e-04
Iter:   18   L: 5.2051890959   Grad. norm: 7.429899e-04
Iter:   19   L: 5.2051891013   Grad. norm: 6.649932e-04
Iter:   20   L: 5.2051891019   Grad. norm: 5.627757e-04
Iter:   21   L: 5.2051891070   Grad. norm: 6.984844e-04
Iter:   22   L: 5.2051891177   Grad. norm: 6.200344e-04
Iter:   23   L: 5.2051891114   Grad. norm: 6.183742e-04
Iter:   24   L: 5.2051891002   Grad. norm: 7.982114e-04
Iter:   25   L: 5.2051890992   Grad. norm: 7.482722e-04
Iter:   26   L: 5.2051890903   Grad. norm: 7.116327e-04
Iter:   27   L: 5.2051891145   Grad. norm: 6.117453e-04
Iter:   28   L: 5.2051890913   Grad. norm: 7.675667e-04
Iter:   29   L: 5.2051890835   Grad. norm: 8.278661e-04
Iter:   30   L: 5.2051891025   Grad. norm: 6.597235e-04
Iter:   31   L: 5.2051890862   Grad. norm: 7.451332e-04
Iter:   32   L: 5.2051890992   Grad. norm: 7.372545e-04
Iter:   33   L: 5.2051891183   Grad. norm: 5.407025e-04
Iter:   34   L: 5.2051891214   Grad. norm: 5.305347e-04
Iter:   35   L: 5.2051891150   Grad. norm: 6.646845e-04
Iter:   36   L: 5.2051891179   Grad. norm: 6.231532e-04
Iter:   37   L: 5.2051891315   Grad. norm: 5.308328e-04
Iter:   38   L: 5.2051891192   Grad. norm: 6.174368e-04
Iter:   39   L: 5.2051891176   Grad. norm: 5.805472e-04
Iter:   40   L: 5.2051891130   Grad. norm: 6.215227e-04
Iter:   41   L: 5.2051891035   Grad. norm: 6.771063e-04
Iter:   42   L: 5.2051890972   Grad. norm: 7.311372e-04
Iter:   43   L: 5.2051891191   Grad. norm: 6.464603e-04
Iter:   44   L: 5.2051891220   Grad. norm: 6.252289e-04
Iter:   45   L: 5.2051890949   Grad. norm: 7.806139e-04
Iter:   46   L: 5.2051891033   Grad. norm: 6.920359e-04
Iter:   47   L: 5.2051890839   Grad. norm: 8.375709e-04
Iter:   48   L: 5.2051890828   Grad. norm: 8.241969e-04
Iter:   49   L: 5.2051891014   Grad. norm: 7.413190e-04
Iter:   50   L: 5.2051890933   Grad. norm: 7.958922e-04
Iter:   51   L: 5.2051890577   Grad. norm: 1.002750e-03
Iter:   52   L: 5.2051890528   Grad. norm: 9.819128e-04
Iter:   53   L: 5.2051890673   Grad. norm: 8.915559e-04
Iter:   54   L: 5.2051890503   Grad. norm: 9.745967e-04
Iter:   55   L: 5.2051890486   Grad. norm: 9.602786e-04
Iter:   56   L: 5.2051890908   Grad. norm: 7.776272e-04
Iter:   57   L: 5.2051890825   Grad. norm: 8.084853e-04
Iter:   58   L: 5.2051890447   Grad. norm: 1.003899e-03
Iter:   59   L: 5.2051890445   Grad. norm: 9.697175e-04
Iter:   60   L: 5.2051890825   Grad. norm: 8.339692e-04
Iter:   61   L: 5.2051890564   Grad. norm: 9.655756e-04
Iter:   62   L: 5.2051890539   Grad. norm: 9.808859e-04
Iter:   63   L: 5.2051890700   Grad. norm: 9.091331e-04
Iter:   64   L: 5.2051890829   Grad. norm: 8.284417e-04
Iter:   65   L: 5.2051891018   Grad. norm: 6.580700e-04
Iter:   66   L: 5.2051891137   Grad. norm: 6.387910e-04
Iter:   67   L: 5.2051891327   Grad. norm: 4.754139e-04
Iter:   68   L: 5.2051891281   Grad. norm: 4.878549e-04
Iter:   69   L: 5.2051891383   Grad. norm: 3.947286e-04
Iter:   70   L: 5.2051891363   Grad. norm: 4.185964e-04
Iter:   71   L: 5.2051891442   Grad. norm: 3.476221e-04
Iter:   72   L: 5.2051891435   Grad. norm: 3.918246e-04
Iter:   73   L: 5.2051891419   Grad. norm: 4.378457e-04
Iter:   74   L: 5.2051891302   Grad. norm: 5.516312e-04
Iter:   75   L: 5.2051891210   Grad. norm: 6.113044e-04
Iter:   76   L: 5.2051891186   Grad. norm: 5.994149e-04
Iter:   77   L: 5.2051891202   Grad. norm: 5.930530e-04
Iter:   78   L: 5.2051891284   Grad. norm: 5.514187e-04
Iter:   79   L: 5.2051891272   Grad. norm: 5.559534e-04
Iter:   80   L: 5.2051891287   Grad. norm: 5.205424e-04
Iter:   81   L: 5.2051891265   Grad. norm: 5.451294e-04
Iter:   82   L: 5.2051891324   Grad. norm: 5.266575e-04
Iter:   83   L: 5.2051891056   Grad. norm: 7.445383e-04
Iter:   84   L: 5.2051890982   Grad. norm: 7.602010e-04
Iter:   85   L: 5.2051891078   Grad. norm: 7.233676e-04
Iter:   86   L: 5.2051891201   Grad. norm: 6.235819e-04
Iter:   87   L: 5.2051891188   Grad. norm: 6.241196e-04
Iter:   88   L: 5.2051891199   Grad. norm: 6.035427e-04
Iter:   89   L: 5.2051891200   Grad. norm: 5.814861e-04
Iter:   90   L: 5.2051891277   Grad. norm: 5.204225e-04
Iter:   91   L: 5.2051891204   Grad. norm: 6.402154e-04
Iter:   92   L: 5.2051891184   Grad. norm: 6.585456e-04
Iter:   93   L: 5.2051890912   Grad. norm: 8.308189e-04
Iter:   94   L: 5.2051890873   Grad. norm: 8.278104e-04
Iter:   95   L: 5.2051890849   Grad. norm: 8.314112e-04
Iter:   96   L: 5.2051891002   Grad. norm: 7.128345e-04
Iter:   97   L: 5.2051890790   Grad. norm: 8.385626e-04
Iter:   98   L: 5.2051890789   Grad. norm: 8.358986e-04
Iter:   99   L: 5.2051890877   Grad. norm: 7.672099e-04
Iter:  100   L: 5.2051890894   Grad. norm: 7.664576e-04
Iter:  101   L: 5.2051890948   Grad. norm: 7.252555e-04
[...]
  43   0.0000       2.692573        73.2686 
  44   0.0000       2.692573        73.2686 
  45   0.0000       5.254341       142.9779 
  46   0.0000       5.254341       142.9779 
  47   0.0000       5.254341       142.9779 
  48   0.0000       5.254341       142.9779 
  49   0.0000       5.254341       142.9779 
  50   0.0000       5.700396       155.1157 
  51   0.0000       5.700396       155.1157 
  52   0.0000       5.700396       155.1157 
  53   0.0000       5.700396       155.1157 
  54   0.0000       5.700396       155.1157 
  55   0.0000       5.700396       155.1157 
  56   0.0000       5.700396       155.1157 
  57   0.0000       5.700396       155.1157 
  58   0.0000       5.700396       155.1157 
  59   0.0000       6.099553       165.9773 
  60   0.0000       8.173753       222.4191 
  61   0.0000       8.173753       222.4191 
  62   0.0000       8.173753       222.4191 
  63   0.0000       8.528072       232.0606 
  64   0.0000       8.528072       232.0606 
  65   0.0000       8.528072       232.0606 
  66   0.0000       8.528072       232.0606 
  67   0.0000       8.528072       232.0606 
  68   0.0000       8.528072       232.0606 
  69   0.0000       8.528072       232.0606 
  70   0.0000      14.201407       386.4399 
  71   0.0000      14.201407       386.4399 
  72   0.0000      14.201407       386.4399 
  73   0.0000      14.201407       386.4399 
  74   0.0000      14.201407       386.4399 
  75   0.0000      20.755794       564.7939 
  76   0.0000      42.770384      1163.8413 
  77   0.0000      42.770384      1163.8413 
  78   0.0000      42.770384      1163.8413 
  79   0.0000      82.089071      2233.7572 
Total SCF time: 0 days 0 hours 0 min 0 sec 

Maximum memory used throughout the entire SCF-calculation: 67.6 MB


           ************************************************************
           *        Program running with 6 parallel MPI-processes     *
           *              working on a common directory               *
           ************************************************************

------------------------------------------------------------------------------
                                ORCA  MP2 
------------------------------------------------------------------------------

Freezing NCore=0 chemical core electrons
Initializing SHARK ... done


------------------------------------------------------------------------------
                           ORCA ORBITAL LOCALIZATION
------------------------------------------------------------------------------

Input orbitals are from                  ... i-anion_lw1x-jun_Compound_6.gbw
Output orbitals are to                   ... i-anion_lw1x-jun_Compound_6.loc
Max. number of iterations                ... 128
Localizations seeded randomly            ... off
Convergence tolerance                    ... 1.000e-06
Treshold for strong local MOs            ... 9.500e-01
Treshold for bond MOs                    ... 8.500e-01
Operator                                 ... 0
Orbital range for localization           ... 0 to 12
Localization criterion                   ... FOSTER-BOYS (AUGMENTED HESSIAN)
Doing the dipole integrals     ... o.k.
Initial value of the localization sum :     0.000000
ITERATION   0 : L=    4.9171588700 DL=  4.92e+00 (AVERGE_DL)=    0.2510786696 
ITERATION   1 : L=    7.3486276683 DL=  2.43e+00 (AVERGE_DL)=    0.1765578571 
ITERATION   2 : L=    7.6951066692 DL=  3.46e-01 (AVERGE_DL)=    0.0666486194 
ITERATION   3 : L=    7.8132957485 DL=  1.18e-01 (AVERGE_DL)=    0.0389261430 
ITERATION   4 : L=    7.8466930144 DL=  3.34e-02 (AVERGE_DL)=    0.0206922709 
ITERATION   5 : L=    7.8629073620 DL=  1.62e-02 (AVERGE_DL)=    0.0144179142 
ITERATION   6 : L=    7.8721141924 DL=  9.21e-03 (AVERGE_DL)=    0.0108644507 
ITERATION   7 : L=    7.8779435623 DL=  5.83e-03 (AVERGE_DL)=    0.0086449703 
ITERATION   8 : L=    7.8819989434 DL=  4.06e-03 (AVERGE_DL)=    0.0072105524 
ITERATION   9 : L=    7.8850492652 DL=  3.05e-03 (AVERGE_DL)=    0.0062535341 
ITERATION  10 : L=    7.8874812799 DL=  2.43e-03 (AVERGE_DL)=    0.0055838764 
ITERATION  11 : L=    7.8894993742 DL=  2.02e-03 (AVERGE_DL)=    0.0050865513 
ITERATION  12 : L=    7.8912184319 DL=  1.72e-03 (AVERGE_DL)=    0.0046945927 
ITERATION  13 : L=    7.8927068016 DL=  1.49e-03 (AVERGE_DL)=    0.0043682563 
ITERATION  14 : L=    7.8940073360 DL=  1.30e-03 (AVERGE_DL)=    0.0040833219 
ITERATION  15 : L=    7.8951488226 DL=  1.14e-03 (AVERGE_DL)=    0.0038254992 
ITERATION  16 : L=    7.8961526153 DL=  1.00e-03 (AVERGE_DL)=    0.0035873580 
ITERATION  17 : L=    7.8970364218 DL=  8.84e-04 (AVERGE_DL)=    0.0033661331 
ITERATION  18 : L=    7.8978163107 DL=  7.80e-04 (AVERGE_DL)=    0.0031620523 
ITERATION  19 : L=    7.8985075776 DL=  6.91e-04 (AVERGE_DL)=    0.0029769778 
ITERATION  20 : L=    7.8991249555 DL=  6.17e-04 (AVERGE_DL)=    0.0028133789 
ITERATION  21 : L=    7.8996824732 DL=  5.58e-04 (AVERGE_DL)=    0.0026735114 
ITERATION  22 : L=    7.9001931623 DL=  5.11e-04 (AVERGE_DL)=    0.0025587683 
ITERATION  23 : L=    7.9006687233 DL=  4.76e-04 (AVERGE_DL)=    0.0024691974 
ITERATION  24 : L=    7.9011192182 DL=  4.50e-04 (AVERGE_DL)=    0.0024032428 
ITERATION  25 : L=    7.9015528233 DL=  4.34e-04 (AVERGE_DL)=    0.0023577616 
ITERATION  26 : L=    7.9019756665 DL=  4.23e-04 (AVERGE_DL)=    0.0023283183 
ITERATION  27 : L=    7.9023917665 DL=  4.16e-04 (AVERGE_DL)=    0.0023096787 
ITERATION  28 : L=    7.9028030893 DL=  4.11e-04 (AVERGE_DL)=    0.0022963819 
ITERATION  29 : L=    7.9032097315 DL=  4.07e-04 (AVERGE_DL)=    0.0022832786 
ITERATION  30 : L=    7.9036102040 DL=  4.00e-04 (AVERGE_DL)=    0.0022658912 
ITERATION  31 : L=    7.9040018590 DL=  3.92e-04 (AVERGE_DL)=    0.0022408074 
ITERATION  32 : L=    7.9043813182 DL=  3.79e-04 (AVERGE_DL)=    0.0022056431 
ITERATION  33 : L=    7.9047449559 DL=  3.64e-04 (AVERGE_DL)=    0.0021591718 
DETECTED SLOW CONVERGENCE - QUITTING

------------------------------------------------------
AUGMENTED HESSIAN OPTIMIZATION OF FOSTER-BOYS ORBITALS
------------------------------------------------------

Spin operator:           0
Orbital window:          0 to 12
Number of iterations:    128
Gradient tolerance:      1.000e-06
Number of pairs:         78
Davidson threshold:      2000
Diagonalization method:  LAPACK
Iter:    0   L: 7.9047449559   Grad. norm: 3.492540e-02
   *** Detected a saddle point. ***
       Augmented Hessian eigenvalues:  1.26e-02  9.09e-05  6.98e-05  2.31e-05 ... 
Iter:    1   L: 7.9071735073   Grad. norm: 5.745356e-02
Iter:    2   L: 7.9078122769   Grad. norm: 3.152203e-03
Iter:    3   L: 7.9078155392   Grad. norm: 2.180070e-04
Iter:    4   L: 7.9078155704   Grad. norm: 5.376790e-04
Iter:    5   L: 7.9078155678   Grad. norm: 9.324164e-04
Iter:    6   L: 7.9078155687   Grad. norm: 1.174073e-03
Iter:    7   L: 7.9078156040   Grad. norm: 1.216507e-03
Iter:    8   L: 7.9078156658   Grad. norm: 1.114258e-03
Iter:    9   L: 7.9078157285   Grad. norm: 9.513286e-04
Iter:   10   L: 7.9078157806   Grad. norm: 7.539705e-04
Iter:   11   L: 7.9078158136   Grad. norm: 5.746768e-04
Iter:   12   L: 7.9078158365   Grad. norm: 3.934943e-04
Iter:   13   L: 7.9078158500   Grad. norm: 1.886348e-04
Iter:   14   L: 7.9078158537   Grad. norm: 3.787321e-05
Iter:   15   L: 7.9078158538   Grad. norm: 2.280683e-07
   *** Likely close to a maximum now. ***
       Augmented Hessian eigenvalues:  1.50e-14 -4.82e-08 -2.71e-07 -3.38e-07 ... 
Iter:   16   L: 7.9078158538   Grad. norm: 3.140579e-11
LOCALIZATION HAS CONVERGED.

Eigenvalues of the Hessian:
  0 -4.825e-08
  1 -2.709e-07
  2 -3.379e-07
  3 -1.634e-01
  4 -1.975e-01
  5 -2.634e-01
  6 -3.041e-01
  7 -3.922e-01
  8 -7.553e-01
  9 -7.945e-01
    ...


------------------------------------------------------------------------------- 
                    LOCALIZED MOLECULAR ORBITAL COMPOSITIONS                   
------------------------------------------------------------------------------- 

The Mulliken populations for each LMO on each atom are computed
The LMO`s will be ordered according to atom index and type
  (A) Strongly localized MO`s have populations of >=0.950 on one atom
  (B) Two center bond orbitals have populations of >=0.850 on two atoms
  (C) Other MO`s are considered to be `delocalized`

FOUND  -  13 strongly local MO`s
       -   0 two center bond MO`s
       -   0 significantly delocalized MO`s

Rather strongly localized orbitals:
MO  12:   0I  -   1.000000
MO  11:   0I  -   1.000000
MO  10:   0I  -   1.000000
MO   9:   0I  -   1.000000
MO   8:   0I  -   1.000000
MO   7:   0I  -   1.000000
MO   6:   0I  -   1.000000
MO   5:   0I  -   1.000000
MO   4:   0I  -   1.000000
MO   3:   0I  -   1.000000
MO   2:   0I  -   1.000000
MO   1:   0I  -   1.000000
MO   0:   0I  -   1.000000
Localized MO's were stored in: i-anion_lw1x-jun_Compound_6.loc



Calculating differential overlap integrals ... ok
Threshold for domain construction in prescreening: TCutDOPre = 3.0e-02

--------------------------
ELECTRON PAIR PRESCREENING
--------------------------

Dipole-based pair screening          .... used

   TCutDOij = 1.000000e-05
   TCutPre  = 1.000000e-06
   .... Finished loop over pairs
Total time spent in the prescreening                  ...     0.003 sec
sum of pair energies estimated for screened out pairs ...       0.000000000000 Eh

---------------------------
MAP CONSTRUCTION THRESHOLDS
---------------------------
    TCutMKN     ...     1.0e-03
    TCutDO      ...     5.0e-03
    TCutC(MO)   ...     1.0e-03
    TCutC(PAO)  ...     1.0e-03

--------------------------------
LOCAL RI TRANSFORMATION (IAVPAO)
--------------------------------

Orbital window:       0 to 12
Number of PAOs:      80
Basis functions:     80 (22 shells)
Aux. functions:     363 (65 shells)
Use SHARK:           on

Processing maps (0.0 sec)
Average map sizes:
   Aux shells -> MOs              13.0
   Aux shells -> PAOs             80.0
   MOs        -> AO shells        22.0
   PAOs       -> AO shells        22.0

Calculating integrals (0.0 sec, 2.884 MB)
Sorting integrals (0.0 sec, 2.880 MB)
Total time for the integral transformation: 0.0 sec

----------------------------
Local MP2 Energy Calculation
----------------------------
Number of orbital pairs included:     91
Truncation parameters:
    PAOOverlapThresh    =        1.000e-08
    TCutPNO             =        1.000e-09

Spin component scaling                      .... not used
MP2 energy scaling factor                   .... 1.000

Formation of semicanonical amplitudes.
 10% done.
 20% done.
 30% done.
 40% done.
 50% done.
 60% done.
 70% done.
 80% done.
 90% done.
100% done.

Finished the LMP2 guess in 0.2 sec.

Average number of PAOs per pair         80.0
Average number of nrPAOs per pair       67.0
Average number of PNOs per pair         64.9
Average number of AUX  per pair        363.0

Semicanonical MP2 energy:                   -0.813596101428 Eh
Semicanonical MP2 energy in PNO basis:      -0.813592689866 Eh

Initial amplitudes guess done. Entering DLPNO-MP2 iteration loop:
   Max. no of iterations          ...  100
   Energy convergence tolerance   ...    1.0e-06 Eh
   Residual convergence tolerance ...    5.0e-06
   Fock matrix cutoff             ...    1.0e-05 Eh
   Max # vectors in DIIS          ...  7
   Start iteration of DIIS        ...  0
   Levelshift                     ...  2.000e-01 Eh
   Damping before turning on DIIS ...  5.000e-01
   Damping after turning on DIIS  ...  0.000e+00

                           *** Turning on DIIS ***
Iter=   0:  ECORR= -0.881295825197  DE=   6.8e-02 RMAX=   1.6e-02
Iter=   1:  ECORR= -0.921885921357  DE=   4.1e-02 RMAX=   9.9e-03
Iter=   2:  ECORR= -0.939311089817  DE=   1.7e-02 RMAX=   4.9e-03
Iter=   3:  ECORR= -0.942827597703  DE=   3.5e-03 RMAX=   2.5e-03
Iter=   4:  ECORR= -0.944244627536  DE=   1.4e-03 RMAX=   1.1e-03
Iter=   5:  ECORR= -0.944482618397  DE=   2.4e-04 RMAX=   4.7e-04
Iter=   6:  ECORR= -0.944499279834  DE=   1.7e-05 RMAX=   1.3e-04
Iter=   7:  ECORR= -0.944499801113  DE=   5.2e-07 RMAX=   5.3e-05
Iter=   8:  ECORR= -0.944506661412  DE=   6.9e-06 RMAX=   2.9e-05
Iter=   9:  ECORR= -0.944506758971  DE=   9.8e-08 RMAX=   1.4e-05
Iter=  10:  ECORR= -0.944508868602  DE=   2.1e-06 RMAX=   7.2e-06
Iter=  11:  ECORR= -0.944509276148  DE=   4.1e-07 RMAX=   4.4e-06 => CONVERGED

Finished the DLPNO-MP2 iterations in 0.8 sec.

LMP2 correlation energy (all non-screened pairs)      ...     -0.944509276148 Eh
Semicanonical PNO correction to energy                ...     -0.000003411562 Eh
Sum of pair energies estimated for screened out pairs ...      0.000000000000 Eh
                                                         -----------------------
Total:                                                ...     -0.944512687709 Eh

------------------------------------------------------
 DLPNO-MP2 CORRELATION ENERGY:      -0.944512687709 Eh
------------------------------------------------------

TIMINGS FOR DLPNO-MP2:
Localization                             ...        0.131 sec
Differential overlap integrals           ...        0.420 sec
Prescreening                             ...        0.112 sec
Map setup                                ...        0.001 sec
(ia|v) trafo                             ...        0.049 sec
Semicanonical amplitudes                 ...        0.118 sec
PNO construction                         ...        0.025 sec
DLPNO-MP2 iterations                     ...        0.850 sec
                                             ----------------
Total time                                          2.087 sec


---------------------------------------
MP2 TOTAL ENERGY:     -295.685183983 Eh
---------------------------------------

Maximum memory used throughout the entire MP2-calculation: 135.5 MB

-------------------------   --------------------
FINAL SINGLE POINT ENERGY      -295.685183983021
-------------------------   --------------------


                            ***************************************
                            *     ORCA property calculations      *
                            ***************************************


  WARNING: The energy has been calculated at the MP2 level but the densities
           used in the property calculations are still SCF densities
           MP2 response densities have not been calculated 
           use %mp2 Density relaxed end
           or  %mp2 Density unrelaxed end

                                    ---------------------
                                    Active property flags
                                    ---------------------
   (+) Dipole Moment


------------------------------------------------------------------------------
                       ORCA ELECTRIC PROPERTIES CALCULATION
------------------------------------------------------------------------------

Dipole Moment Calculation                       ... on
Quadrupole Moment Calculation                   ... off
Polarizability Calculation                      ... off
GBWName                                         ... i-anion_lw1x-jun_Compound_6.gbw
Electron density                                ... i-anion_lw1x-jun_Compound_6.scfp
The origin for moment calculation is the CENTER OF MASS  = ( 0.000000,  0.000000  0.000000)

-------------
DIPOLE MOMENT
-------------
                                X             Y             Z
Electronic contribution:     -0.00000       0.00000      -0.00000
Nuclear contribution   :      0.00000       0.00000       0.00000
                        -----------------------------------------
Total Dipole Moment    :     -0.00000       0.00000      -0.00000
                        -----------------------------------------
Magnitude (a.u.)       :      0.00000
Magnitude (Debye)      :      0.00000



--------------------
Rotational spectrum 
--------------------
 
Rotational constants in cm-1:     0.000000     0.000000     0.000000 
Rotational constants in MHz :     0.000000     0.000000     0.000000 

 Dipole components along the rotational axes: 
x,y,z [a.u.] :    -0.000000     0.000000    -0.000000 
x,y,z [Debye]:    -0.000000     0.000000    -0.000000 

 

Timings for individual modules:

Sum of individual times         ...        6.241 sec (=   0.104 min)
GTO integral calculation        ...        1.201 sec (=   0.020 min)  19.2 %
SCF iterations                  ...        1.974 sec (=   0.033 min)  31.6 %
MP2 module                      ...        3.066 sec (=   0.051 min)  49.1 %
================================================================================

cite the ECPs for I  [Def2-ECP] as follows:
Ce-Yb(ecp-28): M. Dolg, H. Stoll, H.Preuss, J. Chem. Phys., 1989, 90, 1730-1734.
Y-Cd(ecp-28), Hf-Hg(ecp-46): D. Andrae,U. Haeussermann, M. Dolg, H. Stoll, H. Preuss, Theor. Chim. Acta, 1990, 77, 123-141.
In-Sb(ecp-28), Tl-Bi(ecp-46): B. Metz, H. Stoll, M. Dolg, J. Chem. Phys., 2000, 113, 2563-2569.
Te-Xe(ecp-28), Po-Rn(ecp-46): K. A. Peterson, D. Figgen, E. Goll, H. Stoll, M. Dolg, J. Chem. Phys., 2003, 119, 11113-11123.
Rb(ecp-28), Cs(ecp-46): T. Leininger, A. Nicklass, W. Kuechle, H. Stoll, M. Dolg, A. Bergner, Chem. Phys. Lett., 1996, 255, 274-280.
Sr(ecp-28), Ba(ecp-46): M. Kaupp, P. V. Schleyer, H. Stoll and H. Preuss, J. Chem. Phys., 1991, 94, 1360-1366.
La(ecp-46): M. Dolg, H. Stoll, A. Savin, H. Preuss, Theor. Chim. Acta, 1989, 75, 173-194.
Lu(ecp-28): X. Cao, M. Dolg, J. Chem. Phys., 2001, 115, 7348-7355.

ECP parameters for I  [Def2-ECP] have been obtained from:
TURBOMOLE (7.0.2)

----- Orbital basis set information -----
Your calculation utilizes the basis: def2-SVP
   F. Weigend and R. Ahlrichs, Phys. Chem. Chem. Phys. 7, 3297 (2005).



----------------------------------------------------------------------------------------------
                                        COMPOUND BLOCK                                        
                                     SUMMARY OF VARIABLES                                     
----------------------------------------------------------------------------------------------

Variable Name                                           Value             Evaluation String
-------------                                           -----             -----------------
HF_DZ                                    |            -294.74602942    |  
EC_DZ                                    |              -0.82349112    |  
CC_DZ                                    |              -0.81604097    |  EC_DZ-T_DZ
T_DZ                                     |              -0.00745015    |  
HF_TZ                                    |            -294.74899990    |  
EC_TZ                                    |              -0.91055310    |  
CC_TZ                                    |              -0.88687160    |  EC_TZ-T_TZ
T_TZ                                     |              -0.02368150    |  
HF_CBS                                   |            -294.74945040    |  HF_TZ-(HF_TZ-HF_DZ)*3^-5/(3^-5-2^-5)
CC_CBS                                   |              -0.89900980    |  CC_TZ-(CC_TZ-CC_DZ)*3^-4.7405/(3^-4.7405-2^-4.7405)
T_CBS                                    |              -0.03587053    |  T_TZ-(T_TZ-T_DZ)*3^-2.0879/(3^-2.0879-2^-2.0879)
MP_FC                                    |            -295.68517859    |  
MP_FU                                    |            -295.68518398    |  
MP_CV                                    |              -0.00000540    |  MP_FU-MP_FC
MP_PP                                    |            -294.94654554    |  
MP_DK                                    |           -7111.14856805    |  
MP_REL                                   |           -6816.20202251    |  MP_DK-MP_PP
LW1X                                     |           -7111.88635863    |  HF_CBS+CC_CBS+T_CBS+MP_CV+MP_REL
                             ****ORCA TERMINATED NORMALLY****
TOTAL RUN TIME: 0 days 0 hours 5 minutes 44 seconds 393 msec
