
                                 *****************
                                 * O   R   C   A *
                                 *****************

                                            #,                                       
                                            ###                                      
                                            ####                                     
                                            #####                                    
                                            ######                                   
                                           ########,                                 
                                     ,,################,,,,,                         
                               ,,#################################,,                 
                          ,,##########################################,,             
                       ,#########################################, ''#####,          
                    ,#############################################,,   '####,        
                  ,##################################################,,,,####,       
                ,###########''''           ''''###############################       
              ,#####''   ,,,,##########,,,,          '''####'''          '####       
            ,##' ,,,,###########################,,,                        '##       
           ' ,,###''''                  '''############,,,                           
         ,,##''                                '''############,,,,        ,,,,,,###''
      ,#''                                            '''#######################'''  
     '                                                          ''''####''''         
             ,#######,   #######,   ,#######,      ##                                
            ,#'     '#,  ##    ##  ,#'     '#,    #''#        ######   ,####,        
            ##       ##  ##   ,#'  ##            #'  '#       #        #'  '#        
            ##       ##  #######   ##           ,######,      #####,   #    #        
            '#,     ,#'  ##    ##  '#,     ,#' ,#      #,         ##   #,  ,#        
             '#######'   ##     ##  '#######'  #'      '#     #####' # '####'        



                  #######################################################
                  #                        -***-                        #
                  #          Department of theory and spectroscopy      #
                  #    Directorship and core code : Frank Neese         #
                  #        Max Planck Institute fuer Kohlenforschung    #
                  #                Kaiser Wilhelm Platz 1               #
                  #                 D-45470 Muelheim/Ruhr               #
                  #                      Germany                        #
                  #                                                     #
                  #                  All rights reserved                #
                  #                        -***-                        #
                  #######################################################


                         Program Version 5.0.1 -  RELEASE  -


 With contributions from (in alphabetic order):
   Daniel Aravena         : Magnetic Suceptibility
   Michael Atanasov       : Ab Initio Ligand Field Theory (pilot matlab implementation)
   Alexander A. Auer      : GIAO ZORA, VPT2 properties, NMR spectrum
   Ute Becker             : Parallelization
   Giovanni Bistoni       : ED, misc. LED, open-shell LED, HFLD
   Martin Brehm           : Molecular dynamics
   Dmytro Bykov           : SCF Hessian
   Vijay G. Chilkuri      : MRCI spin determinant printing, contributions to CSF-ICE
   Dipayan Datta          : RHF DLPNO-CCSD density
   Achintya Kumar Dutta   : EOM-CC, STEOM-CC
   Dmitry Ganyushin       : Spin-Orbit,Spin-Spin,Magnetic field MRCI
   Miquel Garcia          : C-PCM and meta-GGA Hessian, CC/C-PCM, Gaussian charge scheme
   Yang Guo               : DLPNO-NEVPT2, F12-NEVPT2, CIM, IAO-localization
   Andreas Hansen         : Spin unrestricted coupled pair/coupled cluster methods
   Benjamin Helmich-Paris : MC-RPA, TRAH-SCF, COSX integrals
   Lee Huntington         : MR-EOM, pCC
   Robert Izsak           : Overlap fitted RIJCOSX, COSX-SCS-MP3, EOM
   Marcus Kettner         : VPT2
   Christian Kollmar      : KDIIS, OOCD, Brueckner-CCSD(T), CCSD density, CASPT2, CASPT2-K
   Simone Kossmann        : Meta GGA functionals, TD-DFT gradient, OOMP2, MP2 Hessian
   Martin Krupicka        : Initial AUTO-CI
   Lucas Lang             : DCDCAS
   Marvin Lechner         : AUTO-CI (C++ implementation), FIC-MRCC
   Dagmar Lenk            : GEPOL surface, SMD
   Dimitrios Liakos       : Extrapolation schemes; Compound Job, initial MDCI parallelization
   Dimitrios Manganas     : Further ROCIS development; embedding schemes
   Dimitrios Pantazis     : SARC Basis sets
   Anastasios Papadopoulos: AUTO-CI, single reference methods and gradients
   Taras Petrenko         : DFT Hessian,TD-DFT gradient, ASA, ECA, R-Raman, ABS, FL, XAS/XES, NRVS
   Peter Pinski           : DLPNO-MP2, DLPNO-MP2 Gradient
   Christoph Reimann      : Effective Core Potentials
   Marius Retegan         : Local ZFS, SOC
   Christoph Riplinger    : Optimizer, TS searches, QM/MM, DLPNO-CCSD(T), (RO)-DLPNO pert. Triples
   Tobias Risthaus        : Range-separated hybrids, TD-DFT gradient, RPA, STAB
   Michael Roemelt        : Original ROCIS implementation
   Masaaki Saitow         : Open-shell DLPNO-CCSD energy and density
   Barbara Sandhoefer     : DKH picture change effects
   Avijit Sen             : IP-ROCIS
   Kantharuban Sivalingam : CASSCF convergence, NEVPT2, FIC-MRCI
   Bernardo de Souza      : ESD, SOC TD-DFT
   Georgi Stoychev        : AutoAux, RI-MP2 NMR, DLPNO-MP2 response
   Willem Van den Heuvel  : Paramagnetic NMR
   Boris Wezisla          : Elementary symmetry handling
   Frank Wennmohs         : Technical directorship


 We gratefully acknowledge several colleagues who have allowed us to
 interface, adapt or use parts of their codes:
   Stefan Grimme, W. Hujo, H. Kruse, P. Pracht,  : VdW corrections, initial TS optimization,
                  C. Bannwarth, S. Ehlert          DFT functionals, gCP, sTDA/sTD-DF
   Ed Valeev, F. Pavosevic, A. Kumar             : LibInt (2-el integral package), F12 methods
   Garnet Chan, S. Sharma, J. Yang, R. Olivares  : DMRG
   Ulf Ekstrom                                   : XCFun DFT Library
   Mihaly Kallay                                 : mrcc  (arbitrary order and MRCC methods)
   Jiri Pittner, Ondrej Demel                    : Mk-CCSD
   Frank Weinhold                                : gennbo (NPA and NBO analysis)
   Christopher J. Cramer and Donald G. Truhlar   : smd solvation model
   Lars Goerigk                                  : TD-DFT with DH, B97 family of functionals
   V. Asgeirsson, H. Jonsson                     : NEB implementation
   FAccTs GmbH                                   : IRC, NEB, NEB-TS, DLPNO-Multilevel, CI-OPT
                                                   MM, QMMM, 2- and 3-layer-ONIOM, Crystal-QMMM,
                                                   LR-CPCM, SF, NACMEs, symmetry and pop. for TD-DFT,
                                                   nearIR, NL-DFT gradient (VV10), updates on ESD,
                                                   ML-optimized integration grids
   S Lehtola, MJT Oliveira, MAL Marques          : LibXC Library
   Liviu Ungur et al                             : ANISO software


 Your calculation uses the libint2 library for the computation of 2-el integrals
 For citations please refer to: http://libint.valeyev.net

 Your ORCA version has been built with support for libXC version: 5.1.0
 For citations please refer to: https://tddft.org/programs/libxc/

 This ORCA versions uses:
   CBLAS   interface :  Fast vector & matrix operations
   LAPACKE interface :  Fast linear algebra routines
   SCALAPACK package :  Parallel linear algebra routines
   Shared memory     :  Shared parallel matrices
   BLAS/LAPACK       :  OpenBLAS 0.3.15  USE64BITINT DYNAMIC_ARCH NO_AFFINITY SkylakeX SINGLE_THREADED
        Core in use  :  SkylakeX
   Copyright (c) 2011-2014, The OpenBLAS Project




################################################################################


                                COMPOUND JOB MainJOB 
Basename: oh-anion-lw1x-p34-jun_Compound_0

################################################################################

================================================================================
                                       INPUT FILE
================================================================================
NAME = oh-anion-lw1x-p34-jun_Compound_0.inp
|  1> %Maxcore 1000
|  2>  %Pal nprocs 5 End
|  3>  
|  4>  * xyz -1 1
|  5>  O        0.000000    0.000000    0.107924 
|  6>  H        0.000000    0.000000   -0.863393 
|  7>  *
|  8>  
|  9> 
| 10>                          ****END OF INPUT****
================================================================================
================================================================================

----- Orbital basis set information -----
Your calculation utilizes the basis: def2-SVP
   F. Weigend and R. Ahlrichs, Phys. Chem. Chem. Phys. 7, 3297 (2005).



################################################################################


                                COMPOUND JOB  1 
Basename: oh-anion-lw1x-p34-jun_Compound_1
NOTE: please remember that MaxCore and PAL settings will be ignored.

################################################################################

================================================================================
                                       INPUT FILE
================================================================================
NAME = oh-anion-lw1x-p34-jun_Compound_1.inp
|  1>     ! DKH DefGrid3 RIJCOSX TightPNO DLPNO-MP2 MiniPrint NoPop
|  2>     %Basis
|  3>       Basis         "cc-pVTZ-DK"
|  4>       AuxJ          "AutoAux"
|  5>       AuxC          "AutoAux"
|  6>       CABS          "AutoAux"
|  7>       NewGTO     Ga "cc-pVTZ-DK" End
|  8>       NewAuxjGTO Ga "AutoAux" End
|  9>       NewAuxcGTO Ga "AutoAux" End
| 10>       NewCabsGTO Ga "AutoAux" End
| 11>       NewGTO     Ge "cc-pVTZ-DK" End
| 12>       NewAuxjGTO Ge "AutoAux" End
| 13>       NewAuxcGTO Ge "AutoAux" End
| 14>       NewCabsGTO Ge "AutoAux" End
| 15>       NewGTO     As "cc-pVTZ-DK" End
| 16>       NewAuxjGTO As "AutoAux" End
| 17>       NewAuxcGTO As "AutoAux" End
| 18>       NewCabsGTO As "AutoAux" End
| 19>       NewGTO     Se "cc-pVTZ-DK" End
| 20>       NewAuxjGTO Se "AutoAux" End
| 21>       NewAuxcGTO Se "AutoAux" End
| 22>       NewCabsGTO Se "AutoAux" End
| 23>       NewGTO     Br "cc-pVTZ-DK" End
| 24>       NewAuxjGTO Br "AutoAux" End
| 25>       NewAuxcGTO Br "AutoAux" End
| 26>       NewCabsGTO Br "AutoAux" End
| 27>       NewGTO     Kr "cc-pVTZ-DK" End
| 28>       NewAuxjGTO Kr "AutoAux" End
| 29>       NewAuxcGTO Kr "AutoAux" End
| 30>       NewCabsGTO Kr "AutoAux" End
| 31>       NewGTO     In "cc-pVTZ-DK" End
| 32>       NewAuxjGTO In "AutoAux" End
| 33>       NewAuxcGTO In "AutoAux" End
| 34>       NewCabsGTO In "AutoAux" End
| 35>       NewGTO     Sn "cc-pVTZ-DK" End
| 36>       NewAuxjGTO Sn "AutoAux" End
| 37>       NewAuxcGTO Sn "AutoAux" End
| 38>       NewCabsGTO Sn "AutoAux" End
| 39>       NewGTO     Sb "cc-pVTZ-DK" End
| 40>       NewAuxjGTO Sb "AutoAux" End
| 41>       NewAuxcGTO Sb "AutoAux" End
| 42>       NewCabsGTO Sb "AutoAux" End
| 43>       NewGTO     Te "cc-pVTZ-DK" End
| 44>       NewAuxjGTO Te "AutoAux" End
| 45>       NewAuxcGTO Te "AutoAux" End
| 46>       NewCabsGTO Te "AutoAux" End
| 47>       NewGTO     I  "cc-pVTZ-DK" End
| 48>       NewAuxjGTO I  "AutoAux" End
| 49>       NewAuxcGTO I  "AutoAux" End
| 50>       NewCabsGTO I  "AutoAux" End
| 51>       NewGTO     Xe "cc-pVTZ-DK" End
| 52>       NewAuxjGTO Xe "AutoAux" End
| 53>       NewAuxcGTO Xe "AutoAux" End
| 54>       NewCabsGTO Xe "AutoAux" End
| 55>     End
| 56> 
| 57>                          ****END OF INPUT****
================================================================================
Warning! AutoAux has not been tested for CABS - use at your own risk!
================================================================================

----- Orbital basis set information -----
Your calculation utilizes the basis: cc-pVTZ-DK 
    H-He, B-Ne : Obtained from the ccRepo (grant-hill.group.shef.ac.uk/ccrepo) Feb. 2017
                 W. A. de Jong, R. J. Harrison, D. A. Dixon, J. Chem. Phys. 114, 48 (2001)
  Li-Be, Na-Mg : Obtained from the Peterson Research Group Website (tyr0.chem.wsu.edu/~kipeters) Feb. 2017
                 B. P. Prascher, D. E. Woon, K. A. Peterson, T. H. Dunning, Jr., A. K. Wilson, Theor. Chem. Acc. 128, 69 (2011)
  Al-Ar, Ga-Kr : Obtained from the EMSL Basis Set Exchange (bse.pnl.gov) Feb. 2017
                 W. A. de Jong, R. J. Harrison, D. A. Dixon, J. Chem. Phys. 114, 48 (2001)
         Sc-Zn : Obtained from the ccRepo (grant-hill.group.shef.ac.uk/ccrepo) Feb. 2017
                 N. B. Balabanov, K. A. Peterson, J. Chem. Phys. 123, 064107 (2005)
                 N. B. Balabanov, K. A. Peterson, J. Chem. Phys. 125, 074110 (2006)
          Y-Pd : Obtained from the ccRepo (grant-hill.group.shef.ac.uk/ccrepo) Feb. 2017
                 K. A. Peterson, D. Figgen, M. Dolg, H. Stoll, J. Chem. Phys. 126, 124101 (2007)
  Ag-Cd, Au-Hg : Obtained from the ccRepo (grant-hill.group.shef.ac.uk/ccrepo) Feb. 2017
                 K. A. Peterson, C. Puzzarini, Theor. Chem. Acc. 114, 283 (2005)
  In-Xe, Tl-Rn : Obtained from the ccRepo (grant-hill.group.shef.ac.uk/ccrepo) Feb. 2017
                 D. H. Bross, K. A. Peterson, Theor. Chem. Acc. 133, 1434 (2014)
         Hf-Pt : Obtained from the ccRepo (grant-hill.group.shef.ac.uk/ccrepo) Feb. 2017
                 D. Figgen, K. A. Peterson, M. Dolg, H. Stoll, J. Chem. Phys. 130, 164108 (2009)

The basis set includes element-specific modifications.

----- AuxJ basis set information -----
Your calculation utilizes the AutoAux generation procedure.
  G. L. Stoychev, A. A. Auer, F. Neese, J. Chem. Theory Comput. 13, 554 (2017)

The basis set includes element-specific modifications.

----- AuxC basis set information -----
Your calculation utilizes the AutoAux generation procedure.
  G. L. Stoychev, A. A. Auer, F. Neese, J. Chem. Theory Comput. 13, 554 (2017)

The basis set includes element-specific modifications.

----- CABS information -----
Your calculation utilizes the AutoAux generation procedure.
  G. L. Stoychev, A. A. Auer, F. Neese, J. Chem. Theory Comput. 13, 554 (2017)

The basis set includes element-specific modifications.


                    <<< The CABS basis set will be decontracted >>>

================================================================================
                                        WARNINGS
                       Please study these warnings very carefully!
================================================================================


WARNING: No MP2 level density has been requested!
         To caclulate MP2 level properties use
         %mp2 Density relaxed end
         or
         %mp2 Density unrelaxed end

WARNING: Post HF methods need fully converged wavefunctions
  ===> : Setting SCFConvForced true
         You can overwrite this default with %scf ConvForced false 


INFO   : the flag for use of the SHARK integral package has been found!


                       ****************************
                       * Single Point Calculation *
                       ****************************

---------------------------------
CARTESIAN COORDINATES (ANGSTROEM)
---------------------------------
  O      0.000000    0.000000    0.107924
  H      0.000000    0.000000   -0.863393

----------------------------
CARTESIAN COORDINATES (A.U.)
----------------------------
  NO LB      ZA    FRAG     MASS         X           Y           Z
   0 O     8.0000    0    15.999    0.000000    0.000000    0.203947
   1 H     1.0000    0     1.008    0.000000    0.000000   -1.631576



           ************************************************************
           *        Program running with 5 parallel MPI-processes     *
           *              working on a common directory               *
           ************************************************************
------------------------------------------------------------------------------
                   ___                                                        
                  /   \      - P O W E R E D   B Y -                         
                 /     \                                                     
                 |  |  |   _    _      __       _____    __    __             
                 |  |  |  | |  | |    /  \     |  _  \  |  |  /  |          
                  \  \/   | |  | |   /    \    | | | |  |  | /  /          
                 / \  \   | |__| |  /  /\  \   | |_| |  |  |/  /          
                |  |  |   |  __  | /  /__\  \  |    /   |      \           
                |  |  |   | |  | | |   __   |  |    \   |  |\   \          
                \     /   | |  | | |  |  |  |  | |\  \  |  | \   \       
                 \___/    |_|  |_| |__|  |__|  |_| \__\ |__|  \__/        
                                                                              
                      - O R C A' S   B I G   F R I E N D -                    
                                      &                                       
                       - I N T E G R A L  F E E D E R -                       
                                                                              
 v1 FN, 2020, v2 2021                                                         
------------------------------------------------------------------------------


Reading SHARK input file oh-anion-lw1x-p34-jun_Compound_1.SHARKINP.tmp ... ok
----------------------
SHARK INTEGRAL PACKAGE
----------------------

Number of atoms                             ...      2
Number of basis functions                   ...     44
Number of shells                            ...     16
Maximum angular momentum                    ...      3
Integral batch strategy                     ... SHARK/LIBINT Hybrid
RI-J (if used) integral strategy            ... SPLIT-RIJ (Revised 2003 algorithm where possible)
Printlevel                                  ...      1
Contraction scheme used                     ... SEGMENTED contraction
Coulomb Range Separation                    ... NOT USED
Exchange Range Separation                   ... NOT USED
Finite Nucleus Model                        ... NOT USED
Auxiliary Coulomb fitting basis             ... AVAILABLE
   # of basis functions in Aux-J            ...    211
   # of shells in Aux-J                     ...     63
   Maximum angular momentum in Aux-J        ...      4
Auxiliary J/K fitting basis                 ... NOT available
Auxiliary Correlation fitting basis         ... AVAILABLE
   # of basis functions in Aux-C            ...    211
   # of shells in Aux-C                     ...     63
   Maximum angular momentum in Aux-C        ...      4
Auxiliary 'external' fitting basis          ... NOT available
Integral threshold                          ...     1.000000e-10
Primitive cut-off                           ...     1.000000e-11
Primitive pair pre-selection threshold      ...     1.000000e-11

Calculating pre-screening integrals         ... done (  0.0 sec) Dimension = 16
Organizing shell pair data                  ... done (  0.0 sec)
Shell pair information
Total number of shell pairs                 ...       136
Shell pairs after pre-screening             ...       136
Total number of primitive shell pairs       ...       657
Primitive shell pairs kept                  ...       644
          la=0 lb=0:     28 shell pairs
          la=1 lb=0:     35 shell pairs
          la=1 lb=1:     15 shell pairs
          la=2 lb=0:     21 shell pairs
          la=2 lb=1:     15 shell pairs
          la=2 lb=2:      6 shell pairs
          la=3 lb=0:      7 shell pairs
          la=3 lb=1:      5 shell pairs
          la=3 lb=2:      3 shell pairs
          la=3 lb=3:      1 shell pairs

Calculating one electron integrals          ... done (  0.0 sec)
Calculating RI/J V-Matrix + Cholesky decomp.... done (  0.0 sec)
Calculating RI/C V-Matrix + Cholesky decomp.... done (  0.0 sec)
Calculating Nuclear repulsion               ... done (  0.0 sec) ENN=      4.358430529271 Eh

SHARK setup successfully completed in   0.1 seconds

Maximum memory used throughout the entire GTOINT-calculation: 17.3 MB


           ************************************************************
           *        Program running with 5 parallel MPI-processes     *
           *              working on a common directory               *
           ************************************************************
------------------------------------------------------------------------------
                          ORCA RELATIVISTIC HAMILTONIAN
------------------------------------------------------------------------------

Relativistic Method            ... DKH
Order of DKH treatment         ...   2
Treatment of potential         ... V(e,N)
Eps parameter for DKH          ...   0.00000000010000
Nucleus model                  ... Point Nucleus
Speed of light used            ... 137.03598950000000


            ************************************************
            *        DOUGLAS-KROLL-HESS HAMILTONIAN        *
            *   Programmed by FN according to literature   *
            *        procedures. Special thanks to         *
            *       B.A. Hess, M. Reiher and A. Wolf       *
            *     University Erlangen-Nuernberg/Bonn       *
            ************************************************

Uncontracting the basis (second version)       ... done
Basis set overlap                              ... done
Number of contracted basis functions           ...   44
Number of uncontracted basis functions         ...   58
Initializing the DKH file                      ... done
Calculating the relativistic integrals         ... done
Storing DKH matrices                           ... done
Code used for DKH trafo                        ... ORCA
Computing the DKH transformation               ... done
Storing the transformation variables           ... done
Transforming V and pVp to p**2 space           ... done
First transformation of V and pVp              ... done
Second transformation of Veff                  ... done
Adding kinetic energy                          ... done
Back transformation of Veff to r-space         ... done
Recovering DKH matrices                        ... done
Recontracting the H-matrix (second version)    ... done
Computing the DKH correction to the H-matrix   ... done
Reading the original H-matrix                  ... done
Adding DKH correction to the H-matrix          ... done
Storing the new modified H-matrix              ... done

Maximum memory used throughout the entire REL-calculation: 45.8 MB


           ************************************************************
           *        Program running with 5 parallel MPI-processes     *
           *              working on a common directory               *
           ************************************************************

Diagonalization of the overlap matrix:
Smallest eigenvalue                        ... 4.065e-03
Time for diagonalization                   ...    0.001 sec
Threshold for overlap eigenvalues          ... 1.000e-08
Number of eigenvalues below threshold      ... 0
Time for construction of square roots      ...    0.027 sec
Total time needed                          ...    0.028 sec

Time for model grid setup =    0.014 sec

Loading DKH relativistic densities                 ... done
Calculating cut-offs                               ... done
Initializing the effective Hamiltonian             ... done
Setting up the integral package (SHARK)            ... done
Starting the Coulomb interaction                   ... done (   0.0 sec)
Reading the grid                                   ... done
Mapping shells                                     ... done
Starting the XC term evaluation                    ... done (   0.0 sec)
Transforming the Hamiltonian                       ... done (   0.0 sec)
Diagonalizing the Hamiltonian                      ... done (   0.0 sec)
Back transforming the eigenvectors                 ... done (   0.0 sec)
Now organizing SCF variables                       ... done
--------------------
COSX GRID GENERATION
--------------------

GRIDX 1
-------
General Integration Accuracy     IntAcc      ... 4.020
Radial Grid Type                 RadialGrid  ... OptM3 with GC (2021)
Angular Grid (max. ang.)         AngularGrid ... 2 (Lebedev-110)
Angular grid pruning method      GridPruning ... 4 (adaptive)
Weight generation scheme         WeightScheme... Becke
Basis function cutoff            BFCut       ... 1.0000e-10
Integration weight cutoff        WCut        ... 1.0000e-14
Angular grids for H and He will be reduced by one unit
Partially contracted basis set               ... on
Rotationally invariant grid construction     ... off

Total number of grid points                  ...     2693
Total number of batches                      ...       43
Average number of points per batch           ...       62
Average number of grid points per atom       ...     1346
UseSFitting                                  ... on

GRIDX 2
-------
General Integration Accuracy     IntAcc      ... 4.338
Radial Grid Type                 RadialGrid  ... OptM3 with GC (2021)
Angular Grid (max. ang.)         AngularGrid ... 3 (Lebedev-194)
Angular grid pruning method      GridPruning ... 4 (adaptive)
Weight generation scheme         WeightScheme... Becke
Basis function cutoff            BFCut       ... 1.0000e-10
Integration weight cutoff        WCut        ... 1.0000e-14
Angular grids for H and He will be reduced by one unit
Partially contracted basis set               ... on
Rotationally invariant grid construction     ... off

Total number of grid points                  ...     6002
Total number of batches                      ...       95
Average number of points per batch           ...       63
Average number of grid points per atom       ...     3001
UseSFitting                                  ... on

GRIDX 3
-------
General Integration Accuracy     IntAcc      ... 4.871
Radial Grid Type                 RadialGrid  ... OptM3 with GC (2021)
Angular Grid (max. ang.)         AngularGrid ... 4 (Lebedev-302)
Angular grid pruning method      GridPruning ... 4 (adaptive)
Weight generation scheme         WeightScheme... Becke
Basis function cutoff            BFCut       ... 1.0000e-10
Integration weight cutoff        WCut        ... 1.0000e-14
Angular grids for H and He will be reduced by one unit
Partially contracted basis set               ... on
Rotationally invariant grid construction     ... off

Total number of grid points                  ...    11656
Total number of batches                      ...      183
Average number of points per batch           ...       63
Average number of grid points per atom       ...     5828
UseSFitting                                  ... on

Time for X-Grid setup             =    0.118 sec

 re-compute Schwartz prescreening matrix in partically contracted basis (1) ...done (   0.081 sec)
--------------
SCF ITERATIONS
--------------
ITER       Energy         Delta-E        Max-DP      RMS-DP      [F,P]     Damp
               ***  Starting incremental Fock matrix formation  ***
  0    -75.2062264314   0.000000000000 0.08243744  0.00439380  0.5662773 0.7000
  1    -75.2997757442  -0.093549312745 0.05833635  0.00305137  0.3256017 0.7000
                               ***Turning on DIIS***
  2    -75.3465907684  -0.046815024230 0.02955909  0.00160939  0.1688953 0.7000
  3    -75.5844312010  -0.237840432589 0.02960417  0.00207222  0.0879539 0.0000
  4    -75.3910912345   0.193339966454 0.00934872  0.00050277  0.0212280 0.0000
  5    -75.4398563863  -0.048765151741 0.00277284  0.00019591  0.0061363 0.0000
                      *** Initiating the SOSCF procedure ***
                           *** Shutting down DIIS ***
                      *** Re-Reading the Fockian *** 
                      *** Removing any level shift *** 
ITER      Energy       Delta-E        Grad      Rot      Max-DP    RMS-DP
  6    -75.43618203   0.0036743594  0.002200  0.002200  0.002397  0.000151
               *** Restarting incremental Fock matrix formation ***
  7    -75.43424494   0.0019370909  0.000679  0.001091  0.001632  0.000079
  8    -75.43424752  -0.0000025874  0.000282  0.000922  0.001084  0.000064
  9    -75.43424827  -0.0000007470  0.000087  0.000065  0.000094  0.000006
                 **** Energy Check signals convergence ****
              ***Rediagonalizing the Fockian in SOSCF/NRSCF***

               *****************************************************
               *                     SUCCESS                       *
               *           SCF CONVERGED AFTER  10 CYCLES          *
               *****************************************************

Old exchange energy                            =     -8.838327847 Eh
New exchange energy                            =     -8.838364521 Eh
Exchange energy change after final integration =     -0.000036674 Eh
Total energy after final integration           =    -75.434284972 Eh
Final COS-X integration done in                =     0.108 sec
Total Energy       :          -75.43428497 Eh           -2052.67125 eV
  Last Energy change         ...   -2.7801e-08  Tolerance :   1.0000e-06
  Last MAX-Density change    ...    3.8858e-16  Tolerance :   1.0000e-05
             **** THE GBW FILE WAS UPDATED (oh-anion-lw1x-p34-jun_Compound_1.gbw) ****
             **** DENSITY oh-anion-lw1x-p34-jun_Compound_1.scfp WAS UPDATED ****
             **** ENERGY FILE WAS UPDATED (oh-anion-lw1x-p34-jun_Compound_1.en.tmp) ****
             **** THE GBW FILE WAS UPDATED (oh-anion-lw1x-p34-jun_Compound_1.gbw) ****
             **** DENSITY oh-anion-lw1x-p34-jun_Compound_1.scfp WAS UPDATED ****
----------------
ORBITAL ENERGIES
----------------

  NO   OCC          E(Eh)            E(eV) 
   0   2.0000     -20.122069      -547.5493 
   1   2.0000      -0.847443       -23.0601 
   2   2.0000      -0.196594        -5.3496 
   3   2.0000      -0.063494        -1.7278 
   4   2.0000      -0.063494        -1.7278 
   5   0.0000       0.425576        11.5805 
   6   0.0000       0.908497        24.7215 
   7   0.0000       1.044410        28.4199 
   8   0.0000       1.161187        31.5975 
   9   0.0000       1.161187        31.5975 
  10   0.0000       1.235753        33.6265 
  11   0.0000       1.235753        33.6265 
  12   0.0000       1.480486        40.2861 
  13   0.0000       1.889582        51.4181 
  14   0.0000       2.151919        58.5567 
  15   0.0000       2.151933        58.5571 
  16   0.0000       2.463163        67.0261 
  17   0.0000       2.463163        67.0261 
  18   0.0000       2.544480        69.2388 
  19   0.0000       3.198704        87.0412 
  20   0.0000       3.895781       106.0096 
  21   0.0000       3.895783       106.0097 
  22   0.0000       4.179994       113.7434 
  23   0.0000       4.179994       113.7434 
  24   0.0000       4.419468       120.2599 
  25   0.0000       4.419468       120.2599 
  26   0.0000       4.452192       121.1503 
  27   0.0000       4.883800       132.8950 
  28   0.0000       4.883800       132.8950 
  29   0.0000       5.210227       141.7775 
  30   0.0000       5.523631       150.3056 
  31   0.0000       6.037685       164.2938 
  32   0.0000       6.037685       164.2938 
  33   0.0000       6.280401       170.8984 
  34   0.0000       6.280429       170.8992 
  35   0.0000       7.204708       196.0501 
  36   0.0000       7.204747       196.0511 
  37   0.0000       7.313215       199.0027 
  38   0.0000       7.313215       199.0027 
  39   0.0000       7.319469       199.1729 
  40   0.0000       7.511533       204.3992 
  41   0.0000       7.511533       204.3992 
  42   0.0000       7.975054       217.0123 
  43   0.0000      11.244075       305.9668 
Total SCF time: 0 days 0 hours 0 min 1 sec 

Maximum memory used throughout the entire SCF-calculation: 57.7 MB


           ************************************************************
           *        Program running with 5 parallel MPI-processes     *
           *              working on a common directory               *
           ************************************************************

------------------------------------------------------------------------------
                                ORCA  MP2 
------------------------------------------------------------------------------

Freezing NCore=2 chemical core electrons
Initializing SHARK ... done


------------------------------------------------------------------------------
                           ORCA ORBITAL LOCALIZATION
------------------------------------------------------------------------------

Input orbitals are from                  ... oh-anion-lw1x-p34-jun_Compound_1.gbw
Output orbitals are to                   ... oh-anion-lw1x-p34-jun_Compound_1.loc
Max. number of iterations                ... 128
Localizations seeded randomly            ... off
Convergence tolerance                    ... 1.000e-06
Treshold for strong local MOs            ... 9.500e-01
Treshold for bond MOs                    ... 8.500e-01
Operator                                 ... 0
Orbital range for localization           ... 1 to 4
Localization criterion                   ... FOSTER-BOYS (AUGMENTED HESSIAN)
Doing the dipole integrals     ... o.k.
Initial value of the localization sum :     0.467136
ITERATION   0 : L=    2.1568986566 DL=  1.69e+00 (AVERGE_DL)=    0.5306854671 
ITERATION   1 : L=    2.1871719674 DL=  3.03e-02 (AVERGE_DL)=    0.0710320477 
ITERATION   2 : L=    2.1894002775 DL=  2.23e-03 (AVERGE_DL)=    0.0192713524 
ITERATION   3 : L=    2.1894655189 DL=  6.52e-05 (AVERGE_DL)=    0.0032975076 
ITERATION   4 : L=    2.1894681644 DL=  2.65e-06 (AVERGE_DL)=    0.0006640212 
ITERATION   5 : L=    2.1894685038 DL=  3.39e-07 (AVERGE_DL)=    0.0002378222 
LOCALIZATION SUM CONVERGED

------------------------------------------------------
AUGMENTED HESSIAN OPTIMIZATION OF FOSTER-BOYS ORBITALS
------------------------------------------------------

Spin operator:           0
Orbital window:          1 to 4
Number of iterations:    128
Gradient tolerance:      1.000e-06
Number of pairs:         6
Davidson threshold:      2000
Diagonalization method:  LAPACK
Iter:    0   L: 2.1894685038   Grad. norm: 2.772793e-04
   *** Likely close to a maximum now. ***
       Augmented Hessian eigenvalues:  2.60e-08  8.50e-09 -2.53e+00 -2.53e+00 ... 
Iter:    1   L: 2.1894685168   Grad. norm: 1.761702e-08
LOCALIZATION HAS CONVERGED.

Eigenvalues of the Hessian:
  0  2.343e-09
  1 -2.535e+00
  2 -2.535e+00
  3 -5.623e+00
  4 -5.623e+00
  5 -8.931e+00


------------------------------------------------------------------------------- 
                    LOCALIZED MOLECULAR ORBITAL COMPOSITIONS                   
------------------------------------------------------------------------------- 

The Mulliken populations for each LMO on each atom are computed
The LMO`s will be ordered according to atom index and type
  (A) Strongly localized MO`s have populations of >=0.950 on one atom
  (B) Two center bond orbitals have populations of >=0.850 on two atoms
  (C) Other MO`s are considered to be `delocalized`

FOUND  -   3 strongly local MO`s
       -   1 two center bond MO`s
       -   0 significantly delocalized MO`s

Rather strongly localized orbitals:
MO   3:   0O  -   0.997669
MO   2:   0O  -   0.997669
MO   1:   0O  -   0.997669
Bond-like localized orbitals:
MO   4:   1H  -   0.427129  and   0O  -   0.572871
Localized MO's were stored in: oh-anion-lw1x-p34-jun_Compound_1.loc



Calculating differential overlap integrals ... ok
Threshold for domain construction in prescreening: TCutDOPre = 3.0e-02

--------------------------
ELECTRON PAIR PRESCREENING
--------------------------

Dipole-based pair screening          .... used

   TCutDOij = 1.000000e-05
   TCutPre  = 1.000000e-06
   .... Finished loop over pairs
Total time spent in the prescreening                  ...     0.004 sec
sum of pair energies estimated for screened out pairs ...       0.000000000000 Eh

---------------------------
MAP CONSTRUCTION THRESHOLDS
---------------------------
    TCutMKN     ...     1.0e-03
    TCutDO      ...     5.0e-03
    TCutC(MO)   ...     1.0e-03
    TCutC(PAO)  ...     1.0e-03

--------------------------------
LOCAL RI TRANSFORMATION (IAVPAO)
--------------------------------

Orbital window:       1 to 4
Number of PAOs:      44
Basis functions:     44 (16 shells)
Aux. functions:     211 (63 shells)
Use SHARK:           on

Processing maps (0.0 sec)
Average map sizes:
   Aux shells -> MOs               4.0
   Aux shells -> PAOs             44.0
   MOs        -> AO shells        16.0
   PAOs       -> AO shells        16.0

Calculating integrals (0.0 sec, 0.286 MB)
Sorting integrals (0.0 sec, 0.283 MB)
Total time for the integral transformation: 0.0 sec

----------------------------
Local MP2 Energy Calculation
----------------------------
Number of orbital pairs included:     10
Truncation parameters:
    PAOOverlapThresh    =        1.000e-08
    TCutPNO             =        1.000e-09

Spin component scaling                      .... not used
MP2 energy scaling factor                   .... 1.000

Formation of semicanonical amplitudes.
 10% done.
 20% done.
 30% done.
 40% done.
 50% done.
 60% done.
 70% done.
 80% done.
 90% done.
100% done.

Finished the LMP2 guess in 0.0 sec.

Average number of PAOs per pair         44.0
Average number of nrPAOs per pair       39.0
Average number of PNOs per pair         39.0
Average number of AUX  per pair        211.0

Semicanonical MP2 energy:                   -0.257018264618 Eh
Semicanonical MP2 energy in PNO basis:      -0.257018264618 Eh

Initial amplitudes guess done. Entering DLPNO-MP2 iteration loop:
   Max. no of iterations          ...  100
   Energy convergence tolerance   ...    1.0e-06 Eh
   Residual convergence tolerance ...    5.0e-06
   Fock matrix cutoff             ...    1.0e-05 Eh
   Max # vectors in DIIS          ...  7
   Start iteration of DIIS        ...  0
   Levelshift                     ...  2.000e-01 Eh
   Damping before turning on DIIS ...  5.000e-01
   Damping after turning on DIIS  ...  0.000e+00

                           *** Turning on DIIS ***
Iter=   0:  ECORR= -0.261756224022  DE=   4.7e-03 RMAX=   1.2e-02
Iter=   1:  ECORR= -0.264632737558  DE=   2.9e-03 RMAX=   3.8e-03
Iter=   2:  ECORR= -0.265069925062  DE=   4.4e-04 RMAX=   1.0e-03
Iter=   3:  ECORR= -0.265133090262  DE=   6.3e-05 RMAX=   4.3e-04
Iter=   4:  ECORR= -0.265142253176  DE=   9.2e-06 RMAX=   4.9e-05
Iter=   5:  ECORR= -0.265142248329  DE=   4.8e-09 RMAX=   2.4e-05
Iter=   6:  ECORR= -0.265142109395  DE=   1.4e-07 RMAX=   3.3e-06 => CONVERGED

Finished the DLPNO-MP2 iterations in 0.5 sec.

LMP2 correlation energy (all non-screened pairs)      ...     -0.265142109395 Eh
Semicanonical PNO correction to energy                ...     -0.000000000000 Eh
Sum of pair energies estimated for screened out pairs ...      0.000000000000 Eh
                                                         -----------------------
Total:                                                ...     -0.265142109395 Eh

------------------------------------------------------
 DLPNO-MP2 CORRELATION ENERGY:      -0.265142109395 Eh
------------------------------------------------------

TIMINGS FOR DLPNO-MP2:
Localization                             ...        0.199 sec
Differential overlap integrals           ...        0.218 sec
Prescreening                             ...        0.118 sec
Map setup                                ...        0.000 sec
(ia|v) trafo                             ...        0.043 sec
Semicanonical amplitudes                 ...        0.006 sec
PNO construction                         ...        0.003 sec
DLPNO-MP2 iterations                     ...        0.453 sec
                                             ----------------
Total time                                          1.429 sec


---------------------------------------
MP2 TOTAL ENERGY:      -75.699427081 Eh
---------------------------------------

Maximum memory used throughout the entire MP2-calculation: 105.2 MB

-------------------------   --------------------
FINAL SINGLE POINT ENERGY       -75.699427081354
-------------------------   --------------------


                            ***************************************
                            *     ORCA property calculations      *
                            ***************************************


  WARNING: The energy has been calculated at the MP2 level but the densities
           used in the property calculations are still SCF densities
           MP2 response densities have not been calculated 
           use %mp2 Density relaxed end
           or  %mp2 Density unrelaxed end

                                    ---------------------
                                    Active property flags
                                    ---------------------
   (+) Dipole Moment


------------------------------------------------------------------------------
                       ORCA ELECTRIC PROPERTIES CALCULATION
------------------------------------------------------------------------------

Dipole Moment Calculation                       ... on
Quadrupole Moment Calculation                   ... off
Polarizability Calculation                      ... off
GBWName                                         ... oh-anion-lw1x-p34-jun_Compound_1.gbw
Electron density                                ... oh-anion-lw1x-p34-jun_Compound_1.scfp
The origin for moment calculation is the CENTER OF MASS  = ( 0.000000,  0.000000  0.095156)

-------------
DIPOLE MOMENT
-------------
                                X             Y             Z
Electronic contribution:     -0.00000      -0.00000       0.38525
Nuclear contribution   :      0.00000       0.00000      -0.85640
                        -----------------------------------------
Total Dipole Moment    :     -0.00000      -0.00000      -0.47115
                        -----------------------------------------
Magnitude (a.u.)       :      0.47115
Magnitude (Debye)      :      1.19758



--------------------
Rotational spectrum 
--------------------
 
Rotational constants in cm-1:     0.000000    18.842966    18.842966 
Rotational constants in MHz :     0.000000 564897.906809 564897.906809 

 Dipole components along the rotational axes: 
x,y,z [a.u.] :    -0.471155    -0.000000    -0.000000 
x,y,z [Debye]:    -1.197580    -0.000000    -0.000000 

 

Timings for individual modules:

Sum of individual times         ...        5.279 sec (=   0.088 min)
GTO integral calculation        ...        0.639 sec (=   0.011 min)  12.1 %
Relativistic integrals          ...        0.628 sec (=   0.010 min)  11.9 %
SCF iterations                  ...        2.116 sec (=   0.035 min)  40.1 %
MP2 module                      ...        1.896 sec (=   0.032 min)  35.9 %


################################################################################


                                COMPOUND JOB  2 
Basename: oh-anion-lw1x-p34-jun_Compound_2
NOTE: please remember that MaxCore and PAL settings will be ignored.

################################################################################

================================================================================
                                       INPUT FILE
================================================================================
NAME = oh-anion-lw1x-p34-jun_Compound_2.inp
|  1>     ! DefGrid3 RIJCOSX TightPNO DLPNO-MP2 MiniPrint NoPop
|  2>     %Basis
|  3>       Basis         "cc-pVTZ"
|  4>       AuxJ          "AutoAux"
|  5>       AuxC          "AutoAux"
|  6>       CABS          "AutoAux"
|  7>       NewECP     Ga "SK-MCDHF-RSC" End
|  8>       NewGTO     Ga "cc-pVTZ-PP"   End
|  9>       NewAuxjGTO Ga "AutoAux" End
| 10>       NewAuxcGTO Ga "AutoAux" End
| 11>       NewCabsGTO Ga "AutoAux" End
| 12>       NewECP     Ge "SK-MCDHF-RSC" End
| 13>       NewGTO     Ge "cc-pVTZ-PP"   End
| 14>       NewAuxjGTO Ge "AutoAux" End
| 15>       NewAuxcGTO Ge "AutoAux" End
| 16>       NewCabsGTO Ge "AutoAux" End
| 17>       NewECP     As "SK-MCDHF-RSC" End
| 18>       NewGTO     As "cc-pVTZ-PP"   End
| 19>       NewAuxjGTO As "AutoAux" End
| 20>       NewAuxcGTO As "AutoAux" End
| 21>       NewCabsGTO As "AutoAux" End
| 22>       NewECP     Se "SK-MCDHF-RSC" End
| 23>       NewGTO     Se "cc-pVTZ-PP"   End
| 24>       NewAuxjGTO Se "AutoAux" End
| 25>       NewAuxcGTO Se "AutoAux" End
| 26>       NewCabsGTO Se "AutoAux" End
| 27>       NewECP     Br "SK-MCDHF-RSC" End
| 28>       NewGTO     Br "cc-pVTZ-PP"   End
| 29>       NewAuxjGTO Br "AutoAux" End
| 30>       NewAuxcGTO Br "AutoAux" End
| 31>       NewCabsGTO Br "AutoAux" End
| 32>       NewECP     Kr "SK-MCDHF-RSC" End
| 33>       NewGTO     Kr "cc-pVTZ-PP"   End
| 34>       NewAuxjGTO Kr "AutoAux" End
| 35>       NewAuxcGTO Kr "AutoAux" End
| 36>       NewCabsGTO Kr "AutoAux" End
| 37>       NewECP     In "SK-MCDHF-RSC" End
| 38>       NewGTO     In "cc-pVTZ-PP"   End
| 39>       NewAuxjGTO In "AutoAux" End
| 40>       NewAuxcGTO In "AutoAux" End
| 41>       NewCabsGTO In "AutoAux" End
| 42>       NewECP     Sn "SK-MCDHF-RSC" End
| 43>       NewGTO     Sn "cc-pVTZ-PP"   End
| 44>       NewAuxjGTO Sn "AutoAux" End
| 45>       NewAuxcGTO Sn "AutoAux" End
| 46>       NewCabsGTO Sn "AutoAux" End
| 47>       NewECP     Sb "SK-MCDHF-RSC" End
| 48>       NewGTO     Sb "cc-pVTZ-PP"   End
| 49>       NewAuxjGTO Sb "AutoAux" End
| 50>       NewAuxcGTO Sb "AutoAux" End
| 51>       NewCabsGTO Sb "AutoAux" End
| 52>       NewECP     Te "SK-MCDHF-RSC" End
| 53>       NewGTO     Te "cc-pVTZ-PP"   End
| 54>       NewAuxjGTO Te "AutoAux" End
| 55>       NewAuxcGTO Te "AutoAux" End
| 56>       NewCabsGTO Te "AutoAux" End
| 57>       NewECP     I  "SK-MCDHF-RSC" End
| 58>       NewGTO     I  "cc-pVTZ-PP"   End
| 59>       NewAuxjGTO I  "AutoAux" End
| 60>       NewAuxcGTO I  "AutoAux" End
| 61>       NewCabsGTO I  "AutoAux" End
| 62>       NewECP     Xe "SK-MCDHF-RSC" End
| 63>       NewGTO     Xe "cc-pVTZ-PP"   End
| 64>       NewAuxjGTO Xe "AutoAux" End
| 65>       NewAuxcGTO Xe "AutoAux" End
| 66>       NewCabsGTO Xe "AutoAux" End
| 67>     End
| 68> 
| 69>                          ****END OF INPUT****
================================================================================
Warning! AutoAux has not been tested for CABS - use at your own risk!
================================================================================

----- Orbital basis set information -----
Your calculation utilizes the basis: cc-pVTZ 
       H, B-Ne : Obtained from the ccRepo (grant-hill.group.shef.ac.uk/ccrepo) Feb. 2017
                 T. H. Dunning, Jr., J. Chem. Phys. 90, 1007 (1989)
            He : Obtained from the ccRepo (grant-hill.group.shef.ac.uk/ccrepo) Feb. 2017
                 D. E. Woon, T. H. Dunning, Jr., J. Chem. Phys. 100, 2975 (1994)
  Li-Be, Na-Mg : Obtained from the ccRepo (grant-hill.group.shef.ac.uk/ccrepo) Feb. 2017
                 B. P. Prascher, D. E. Woon, K. A. Peterson, T. H. Dunning, Jr., A. K. Wilson, Theor. Chem. Acc. 128, 69 (2011)
         Al-Ar : Obtained from the ccRepo (grant-hill.group.shef.ac.uk/ccrepo) Feb. 2017
                 D. E. Woon, T. H. Dunning, Jr., J. Chem. Phys. 98, 1358 (1993)
            Ca : Obtained from the Peterson Research Group Website (tyr0.chem.wsu.edu/~kipeters) Feb. 2017
                 J. Koput, K. A. Peterson, J. Phys. Chem. 106, 9595 (2002)
         Sc-Zn : Obtained from the ccRepo (grant-hill.group.shef.ac.uk/ccrepo) Feb. 2017
                 N. B. Balabanov, K. A. Peterson, J. Chem. Phys. 123, 064107 (2005)
                 N. B. Balabanov, K. A. Peterson, J. Chem. Phys. 125, 074110 (2006)
         Ga-Kr : Obtained from the ccRepo (grant-hill.group.shef.ac.uk/ccrepo) Feb. 2017
                 A. K. Wilson, D. E. Woon, K. A. Peterson, T. H. Dunning, Jr., J. Chem. Phys. 110, 7667 (1999)
             Y : Obtained from the ccRepo (grant-hill.group.shef.ac.uk/ccrepo) Feb. 2017
                 K. A. Peterson, D. Figgen, M. Dolg, H. Stoll, J. Chem. Phys. 126, 124101 (2007)
        Ag, Au : Obtained from the Peterson Research Group Website (tyr0.chem.wsu.edu/~kipeters) Feb. 2017
                 K. A. Peterson, C. Puzzarini, Theor. Chem. Acc. 114, 283 (2005)

The basis set includes element-specific modifications.

Your calculation utilizes the basis: cc-pVTZ-PP 
       Ca, Sr, Ba, Ra : Obtained from the Peterson Research Group Website (tyr0.chem.wsu.edu/~kipeters) Feb. 2017
                        H. Li, H. Feng, W. Sun, Y. Zhang, Q. Fan, K. A. Peterson, Y. Xie, H. F. Schaefer III, Mol. Phys. 111, 2292 (2013)
  Cu-Zn, Ag-Cd, Au-Hg : Obtained from the ccRepo (grant-hill.group.shef.ac.uk/ccrepo) Feb. 2017
                        K. A. Peterson, C. Puzzarini, Theor. Chem. Acc. 114, 283 (2005)
  Ga-Kr, In-Xe, Tl-Rn : Obtained from the ccRepo (grant-hill.group.shef.ac.uk/ccrepo) Feb. 2017
                        K. A. Peterson, J. Chem. Phys. 119, 11099 (2003)
                        K. A. Peterson, D. Figgen, E. Goll, H. Stoll, M. Dolg, J. Chem. Phys. 119, 11113 (2003)
                 Y-Pd : Obtained from the ccRepo (grant-hill.group.shef.ac.uk/ccrepo) Feb. 2017
                        K. A. Peterson, D. Figgen, M. Dolg, H. Stoll, J. Chem. Phys. 126, 124101 (2007)
                Hf-Pt : Obtained from the ccRepo (grant-hill.group.shef.ac.uk/ccrepo) Feb. 2017
                        D. Figgen, K. A. Peterson, M. Dolg, H. Stoll, J. Chem. Phys. 130, 164108 (2009)
                    U : Obtained from the ccRepo (grant-hill.group.shef.ac.uk/ccrepo) Feb. 2020
                        K. A. Peterson, J. Chem. Phys. 142, 074105 (2015)

----- AuxJ basis set information -----
Your calculation utilizes the AutoAux generation procedure.
  G. L. Stoychev, A. A. Auer, F. Neese, J. Chem. Theory Comput. 13, 554 (2017)

The basis set includes element-specific modifications.

----- AuxC basis set information -----
Your calculation utilizes the AutoAux generation procedure.
  G. L. Stoychev, A. A. Auer, F. Neese, J. Chem. Theory Comput. 13, 554 (2017)

The basis set includes element-specific modifications.

----- CABS information -----
Your calculation utilizes the AutoAux generation procedure.
  G. L. Stoychev, A. A. Auer, F. Neese, J. Chem. Theory Comput. 13, 554 (2017)

The basis set includes element-specific modifications.


                    <<< The CABS basis set will be decontracted >>>

================================================================================
                                        WARNINGS
                       Please study these warnings very carefully!
================================================================================


WARNING: No MP2 level density has been requested!
         To caclulate MP2 level properties use
         %mp2 Density relaxed end
         or
         %mp2 Density unrelaxed end

WARNING: Post HF methods need fully converged wavefunctions
  ===> : Setting SCFConvForced true
         You can overwrite this default with %scf ConvForced false 


INFO   : the flag for use of the SHARK integral package has been found!


                       ****************************
                       * Single Point Calculation *
                       ****************************

---------------------------------
CARTESIAN COORDINATES (ANGSTROEM)
---------------------------------
  O      0.000000    0.000000    0.107924
  H      0.000000    0.000000   -0.863393

----------------------------
CARTESIAN COORDINATES (A.U.)
----------------------------
  NO LB      ZA    FRAG     MASS         X           Y           Z
   0 O     8.0000    0    15.999    0.000000    0.000000    0.203947
   1 H     1.0000    0     1.008    0.000000    0.000000   -1.631576



           ************************************************************
           *        Program running with 5 parallel MPI-processes     *
           *              working on a common directory               *
           ************************************************************
------------------------------------------------------------------------------
                   ___                                                        
                  /   \      - P O W E R E D   B Y -                         
                 /     \                                                     
                 |  |  |   _    _      __       _____    __    __             
                 |  |  |  | |  | |    /  \     |  _  \  |  |  /  |          
                  \  \/   | |  | |   /    \    | | | |  |  | /  /          
                 / \  \   | |__| |  /  /\  \   | |_| |  |  |/  /          
                |  |  |   |  __  | /  /__\  \  |    /   |      \           
                |  |  |   | |  | | |   __   |  |    \   |  |\   \          
                \     /   | |  | | |  |  |  |  | |\  \  |  | \   \       
                 \___/    |_|  |_| |__|  |__|  |_| \__\ |__|  \__/        
                                                                              
                      - O R C A' S   B I G   F R I E N D -                    
                                      &                                       
                       - I N T E G R A L  F E E D E R -                       
                                                                              
 v1 FN, 2020, v2 2021                                                         
------------------------------------------------------------------------------


Reading SHARK input file oh-anion-lw1x-p34-jun_Compound_2.SHARKINP.tmp ... ok
----------------------
SHARK INTEGRAL PACKAGE
----------------------

Number of atoms                             ...      2
Number of basis functions                   ...     44
Number of shells                            ...     16
Maximum angular momentum                    ...      3
Integral batch strategy                     ... SHARK/LIBINT Hybrid
RI-J (if used) integral strategy            ... SPLIT-RIJ (Revised 2003 algorithm where possible)
Printlevel                                  ...      1
Contraction scheme used                     ... SEGMENTED contraction
Coulomb Range Separation                    ... NOT USED
Exchange Range Separation                   ... NOT USED
Finite Nucleus Model                        ... NOT USED
Auxiliary Coulomb fitting basis             ... AVAILABLE
   # of basis functions in Aux-J            ...    211
   # of shells in Aux-J                     ...     63
   Maximum angular momentum in Aux-J        ...      4
Auxiliary J/K fitting basis                 ... NOT available
Auxiliary Correlation fitting basis         ... AVAILABLE
   # of basis functions in Aux-C            ...    211
   # of shells in Aux-C                     ...     63
   Maximum angular momentum in Aux-C        ...      4
Auxiliary 'external' fitting basis          ... NOT available
Integral threshold                          ...     1.000000e-10
Primitive cut-off                           ...     1.000000e-11
Primitive pair pre-selection threshold      ...     1.000000e-11

Calculating pre-screening integrals         ... done (  0.0 sec) Dimension = 16
Organizing shell pair data                  ... done (  0.0 sec)
Shell pair information
Total number of shell pairs                 ...       136
Shell pairs after pre-screening             ...       136
Total number of primitive shell pairs       ...       657
Primitive shell pairs kept                  ...       644
          la=0 lb=0:     28 shell pairs
          la=1 lb=0:     35 shell pairs
          la=1 lb=1:     15 shell pairs
          la=2 lb=0:     21 shell pairs
          la=2 lb=1:     15 shell pairs
          la=2 lb=2:      6 shell pairs
          la=3 lb=0:      7 shell pairs
          la=3 lb=1:      5 shell pairs
          la=3 lb=2:      3 shell pairs
          la=3 lb=3:      1 shell pairs

Calculating one electron integrals          ... done (  0.0 sec)
Calculating RI/J V-Matrix + Cholesky decomp.... done (  0.0 sec)
Calculating RI/C V-Matrix + Cholesky decomp.... done (  0.0 sec)
Calculating Nuclear repulsion               ... done (  0.0 sec) ENN=      4.358430529271 Eh

SHARK setup successfully completed in   0.2 seconds

Maximum memory used throughout the entire GTOINT-calculation: 17.3 MB


           ************************************************************
           *        Program running with 5 parallel MPI-processes     *
           *              working on a common directory               *
           ************************************************************

Diagonalization of the overlap matrix:
Smallest eigenvalue                        ... 4.066e-03
Time for diagonalization                   ...    0.001 sec
Threshold for overlap eigenvalues          ... 1.000e-08
Number of eigenvalues below threshold      ... 0
Time for construction of square roots      ...    0.003 sec
Total time needed                          ...    0.004 sec

--------------------
COSX GRID GENERATION
--------------------

GRIDX 1
-------
General Integration Accuracy     IntAcc      ... 4.020
Radial Grid Type                 RadialGrid  ... OptM3 with GC (2021)
Angular Grid (max. ang.)         AngularGrid ... 2 (Lebedev-110)
Angular grid pruning method      GridPruning ... 4 (adaptive)
Weight generation scheme         WeightScheme... Becke
Basis function cutoff            BFCut       ... 1.0000e-10
Integration weight cutoff        WCut        ... 1.0000e-14
Angular grids for H and He will be reduced by one unit
Partially contracted basis set               ... on
Rotationally invariant grid construction     ... off

Total number of grid points                  ...     2693
Total number of batches                      ...       43
Average number of points per batch           ...       62
Average number of grid points per atom       ...     1346
UseSFitting                                  ... on

GRIDX 2
-------
General Integration Accuracy     IntAcc      ... 4.338
Radial Grid Type                 RadialGrid  ... OptM3 with GC (2021)
Angular Grid (max. ang.)         AngularGrid ... 3 (Lebedev-194)
Angular grid pruning method      GridPruning ... 4 (adaptive)
Weight generation scheme         WeightScheme... Becke
Basis function cutoff            BFCut       ... 1.0000e-10
Integration weight cutoff        WCut        ... 1.0000e-14
Angular grids for H and He will be reduced by one unit
Partially contracted basis set               ... on
Rotationally invariant grid construction     ... off

Total number of grid points                  ...     6002
Total number of batches                      ...       95
Average number of points per batch           ...       63
Average number of grid points per atom       ...     3001
UseSFitting                                  ... on

GRIDX 3
-------
General Integration Accuracy     IntAcc      ... 4.871
Radial Grid Type                 RadialGrid  ... OptM3 with GC (2021)
Angular Grid (max. ang.)         AngularGrid ... 4 (Lebedev-302)
Angular grid pruning method      GridPruning ... 4 (adaptive)
Weight generation scheme         WeightScheme... Becke
Basis function cutoff            BFCut       ... 1.0000e-10
Integration weight cutoff        WCut        ... 1.0000e-14
Angular grids for H and He will be reduced by one unit
Partially contracted basis set               ... on
Rotationally invariant grid construction     ... off

Total number of grid points                  ...    11656
Total number of batches                      ...      183
Average number of points per batch           ...       63
Average number of grid points per atom       ...     5828
UseSFitting                                  ... on

Time for X-Grid setup             =    0.119 sec

 re-compute Schwartz prescreening matrix in partically contracted basis (1) ...done (   0.080 sec)
--------------
SCF ITERATIONS
--------------
ITER       Energy         Delta-E        Max-DP      RMS-DP      [F,P]     Damp
               ***  Starting incremental Fock matrix formation  ***
                      *** Initiating the SOSCF procedure ***
                      *** Re-Reading the Fockian *** 
                      *** Removing any level shift *** 
ITER      Energy       Delta-E        Grad      Rot      Max-DP    RMS-DP
  0    -75.38256861 -75.3825686133  0.002275  0.002275  0.001165  0.000050
               *** Restarting incremental Fock matrix formation ***
  1    -75.38257406  -0.0000054435  0.000372  0.000346  0.000570  0.000028
  2    -75.38257466  -0.0000006032  0.000254  0.000086  0.000254  0.000011
                 **** Energy Check signals convergence ****
              ***Rediagonalizing the Fockian in SOSCF/NRSCF***

               *****************************************************
               *                     SUCCESS                       *
               *           SCF CONVERGED AFTER   3 CYCLES          *
               *****************************************************

Old exchange energy                            =     -8.828787036 Eh
New exchange energy                            =     -8.828768610 Eh
Exchange energy change after final integration =      0.000018426 Eh
Total energy after final integration           =    -75.382556471 Eh
Final COS-X integration done in                =     0.107 sec
Total Energy       :          -75.38255647 Eh           -2051.26365 eV
  Last Energy change         ...   -2.3666e-07  Tolerance :   1.0000e-06
  Last MAX-Density change    ...    4.9960e-16  Tolerance :   1.0000e-05
             **** THE GBW FILE WAS UPDATED (oh-anion-lw1x-p34-jun_Compound_2.gbw) ****
             **** DENSITY oh-anion-lw1x-p34-jun_Compound_2.scfp WAS UPDATED ****
             **** ENERGY FILE WAS UPDATED (oh-anion-lw1x-p34-jun_Compound_2.en.tmp) ****
             **** THE GBW FILE WAS UPDATED (oh-anion-lw1x-p34-jun_Compound_2.gbw) ****
             **** DENSITY oh-anion-lw1x-p34-jun_Compound_2.scfp WAS UPDATED ****
----------------
ORBITAL ENERGIES
----------------

  NO   OCC          E(Eh)            E(eV) 
   0   2.0000     -20.106743      -547.1323 
   1   2.0000      -0.845761       -23.0143 
   2   2.0000      -0.196646        -5.3510 
   3   2.0000      -0.063661        -1.7323 
   4   2.0000      -0.063661        -1.7323 
   5   0.0000       0.425621        11.5817 
   6   0.0000       0.908531        24.7224 
   7   0.0000       1.044480        28.4217 
   8   0.0000       1.161255        31.5994 
   9   0.0000       1.161255        31.5994 
  10   0.0000       1.235688        33.6248 
  11   0.0000       1.235688        33.6248 
  12   0.0000       1.481912        40.3249 
  13   0.0000       1.889968        51.4286 
  14   0.0000       2.151863        58.5552 
  15   0.0000       2.151878        58.5556 
  16   0.0000       2.463161        67.0260 
  17   0.0000       2.463161        67.0260 
  18   0.0000       2.544671        69.2440 
  19   0.0000       3.199001        87.0493 
  20   0.0000       3.896037       106.0166 
  21   0.0000       3.896040       106.0166 
  22   0.0000       4.180618       113.7604 
  23   0.0000       4.180618       113.7604 
  24   0.0000       4.420388       120.2849 
  25   0.0000       4.420388       120.2849 
  26   0.0000       4.452958       121.1712 
  27   0.0000       4.884762       132.9211 
  28   0.0000       4.884762       132.9211 
  29   0.0000       5.211684       141.8171 
  30   0.0000       5.526426       150.3817 
  31   0.0000       6.038504       164.3160 
  32   0.0000       6.038504       164.3160 
  33   0.0000       6.281338       170.9239 
  34   0.0000       6.281366       170.9247 
  35   0.0000       7.206433       196.0970 
  36   0.0000       7.206472       196.0981 
  37   0.0000       7.314950       199.0499 
  38   0.0000       7.314950       199.0499 
  39   0.0000       7.324921       199.3212 
  40   0.0000       7.513131       204.4427 
  41   0.0000       7.513131       204.4427 
  42   0.0000       7.977746       217.0855 
  43   0.0000      11.269893       306.6694 
Total SCF time: 0 days 0 hours 0 min 1 sec 

Maximum memory used throughout the entire SCF-calculation: 57.7 MB


           ************************************************************
           *        Program running with 5 parallel MPI-processes     *
           *              working on a common directory               *
           ************************************************************

------------------------------------------------------------------------------
                                ORCA  MP2 
------------------------------------------------------------------------------

Freezing NCore=2 chemical core electrons
Initializing SHARK ... done


------------------------------------------------------------------------------
                           ORCA ORBITAL LOCALIZATION
------------------------------------------------------------------------------

Input orbitals are from                  ... oh-anion-lw1x-p34-jun_Compound_2.gbw
Output orbitals are to                   ... oh-anion-lw1x-p34-jun_Compound_2.loc
Max. number of iterations                ... 128
Localizations seeded randomly            ... off
Convergence tolerance                    ... 1.000e-06
Treshold for strong local MOs            ... 9.500e-01
Treshold for bond MOs                    ... 8.500e-01
Operator                                 ... 0
Orbital range for localization           ... 1 to 4
Localization criterion                   ... FOSTER-BOYS (AUGMENTED HESSIAN)
Doing the dipole integrals     ... o.k.
Initial value of the localization sum :     0.465875
ITERATION   0 : L=    2.1589004796 DL=  1.69e+00 (AVERGE_DL)=    0.5311975919 
ITERATION   1 : L=    2.1893100748 DL=  3.04e-02 (AVERGE_DL)=    0.0711917542 
ITERATION   2 : L=    2.1915573305 DL=  2.25e-03 (AVERGE_DL)=    0.0193531036 
ITERATION   3 : L=    2.1916230865 DL=  6.58e-05 (AVERGE_DL)=    0.0033104884 
ITERATION   4 : L=    2.1916257787 DL=  2.69e-06 (AVERGE_DL)=    0.0006698457 
ITERATION   5 : L=    2.1916261245 DL=  3.46e-07 (AVERGE_DL)=    0.0002400973 
LOCALIZATION SUM CONVERGED

------------------------------------------------------
AUGMENTED HESSIAN OPTIMIZATION OF FOSTER-BOYS ORBITALS
------------------------------------------------------

Spin operator:           0
Orbital window:          1 to 4
Number of iterations:    128
Gradient tolerance:      1.000e-06
Number of pairs:         6
Davidson threshold:      2000
Diagonalization method:  LAPACK
Iter:    0   L: 2.1916261245   Grad. norm: 2.813021e-04
   *** Likely close to a maximum now. ***
       Augmented Hessian eigenvalues:  2.68e-08  8.44e-09 -2.53e+00 -2.53e+00 ... 
Iter:    1   L: 2.1916261379   Grad. norm: 1.816866e-08
LOCALIZATION HAS CONVERGED.

Eigenvalues of the Hessian:
  0  2.091e-09
  1 -2.534e+00
  2 -2.534e+00
  3 -5.626e+00
  4 -5.626e+00
  5 -8.939e+00


------------------------------------------------------------------------------- 
                    LOCALIZED MOLECULAR ORBITAL COMPOSITIONS                   
------------------------------------------------------------------------------- 

The Mulliken populations for each LMO on each atom are computed
The LMO`s will be ordered according to atom index and type
  (A) Strongly localized MO`s have populations of >=0.950 on one atom
  (B) Two center bond orbitals have populations of >=0.850 on two atoms
  (C) Other MO`s are considered to be `delocalized`

FOUND  -   3 strongly local MO`s
       -   1 two center bond MO`s
       -   0 significantly delocalized MO`s

Rather strongly localized orbitals:
MO   3:   0O  -   0.997624
MO   2:   0O  -   0.997624
MO   1:   0O  -   0.997624
Bond-like localized orbitals:
MO   4:   1H  -   0.426924  and   0O  -   0.573076
Localized MO's were stored in: oh-anion-lw1x-p34-jun_Compound_2.loc



Calculating differential overlap integrals ... ok
Threshold for domain construction in prescreening: TCutDOPre = 3.0e-02

--------------------------
ELECTRON PAIR PRESCREENING
--------------------------

Dipole-based pair screening          .... used

   TCutDOij = 1.000000e-05
   TCutPre  = 1.000000e-06
   .... Finished loop over pairs
Total time spent in the prescreening                  ...     0.001 sec
sum of pair energies estimated for screened out pairs ...       0.000000000000 Eh

---------------------------
MAP CONSTRUCTION THRESHOLDS
---------------------------
    TCutMKN     ...     1.0e-03
    TCutDO      ...     5.0e-03
    TCutC(MO)   ...     1.0e-03
    TCutC(PAO)  ...     1.0e-03

--------------------------------
LOCAL RI TRANSFORMATION (IAVPAO)
--------------------------------

Orbital window:       1 to 4
Number of PAOs:      44
Basis functions:     44 (16 shells)
Aux. functions:     211 (63 shells)
Use SHARK:           on

Processing maps (0.0 sec)
Average map sizes:
   Aux shells -> MOs               4.0
   Aux shells -> PAOs             44.0
   MOs        -> AO shells        16.0
   PAOs       -> AO shells        16.0

Calculating integrals (0.0 sec, 0.286 MB)
Sorting integrals (0.0 sec, 0.283 MB)
Total time for the integral transformation: 0.0 sec

----------------------------
Local MP2 Energy Calculation
----------------------------
Number of orbital pairs included:     10
Truncation parameters:
    PAOOverlapThresh    =        1.000e-08
    TCutPNO             =        1.000e-09

Spin component scaling                      .... not used
MP2 energy scaling factor                   .... 1.000

Formation of semicanonical amplitudes.
 10% done.
 20% done.
 30% done.
 40% done.
 50% done.
 60% done.
 70% done.
 80% done.
 90% done.
100% done.

Finished the LMP2 guess in 0.0 sec.

Average number of PAOs per pair         44.0
Average number of nrPAOs per pair       39.0
Average number of PNOs per pair         39.0
Average number of AUX  per pair        211.0

Semicanonical MP2 energy:                   -0.256859433084 Eh
Semicanonical MP2 energy in PNO basis:      -0.256859433084 Eh

Initial amplitudes guess done. Entering DLPNO-MP2 iteration loop:
   Max. no of iterations          ...  100
   Energy convergence tolerance   ...    1.0e-06 Eh
   Residual convergence tolerance ...    5.0e-06
   Fock matrix cutoff             ...    1.0e-05 Eh
   Max # vectors in DIIS          ...  7
   Start iteration of DIIS        ...  0
   Levelshift                     ...  2.000e-01 Eh
   Damping before turning on DIIS ...  5.000e-01
   Damping after turning on DIIS  ...  0.000e+00

                           *** Turning on DIIS ***
Iter=   0:  ECORR= -0.261592900482  DE=   4.7e-03 RMAX=   1.1e-02
Iter=   1:  ECORR= -0.264453564113  DE=   2.9e-03 RMAX=   3.8e-03
Iter=   2:  ECORR= -0.264887114324  DE=   4.3e-04 RMAX=   1.0e-03
Iter=   3:  ECORR= -0.264949615498  DE=   6.3e-05 RMAX=   4.2e-04
Iter=   4:  ECORR= -0.264958651321  DE=   9.0e-06 RMAX=   4.9e-05
Iter=   5:  ECORR= -0.264958637810  DE=   1.4e-08 RMAX=   2.4e-05
Iter=   6:  ECORR= -0.264958500515  DE=   1.4e-07 RMAX=   3.2e-06 => CONVERGED

Finished the DLPNO-MP2 iterations in 0.4 sec.

LMP2 correlation energy (all non-screened pairs)      ...     -0.264958500515 Eh
Semicanonical PNO correction to energy                ...      0.000000000000 Eh
Sum of pair energies estimated for screened out pairs ...      0.000000000000 Eh
                                                         -----------------------
Total:                                                ...     -0.264958500515 Eh

------------------------------------------------------
 DLPNO-MP2 CORRELATION ENERGY:      -0.264958500515 Eh
------------------------------------------------------

TIMINGS FOR DLPNO-MP2:
Localization                             ...        0.198 sec
Differential overlap integrals           ...        0.219 sec
Prescreening                             ...        0.115 sec
Map setup                                ...        0.000 sec
(ia|v) trafo                             ...        0.040 sec
Semicanonical amplitudes                 ...        0.006 sec
PNO construction                         ...        0.003 sec
DLPNO-MP2 iterations                     ...        0.424 sec
                                             ----------------
Total time                                          1.380 sec


---------------------------------------
MP2 TOTAL ENERGY:      -75.647514972 Eh
---------------------------------------

Maximum memory used throughout the entire MP2-calculation: 105.2 MB

-------------------------   --------------------
FINAL SINGLE POINT ENERGY       -75.647514971535
-------------------------   --------------------


                            ***************************************
                            *     ORCA property calculations      *
                            ***************************************


  WARNING: The energy has been calculated at the MP2 level but the densities
           used in the property calculations are still SCF densities
           MP2 response densities have not been calculated 
           use %mp2 Density relaxed end
           or  %mp2 Density unrelaxed end

                                    ---------------------
                                    Active property flags
                                    ---------------------
   (+) Dipole Moment


------------------------------------------------------------------------------
                       ORCA ELECTRIC PROPERTIES CALCULATION
------------------------------------------------------------------------------

Dipole Moment Calculation                       ... on
Quadrupole Moment Calculation                   ... off
Polarizability Calculation                      ... off
GBWName                                         ... oh-anion-lw1x-p34-jun_Compound_2.gbw
Electron density                                ... oh-anion-lw1x-p34-jun_Compound_2.scfp
The origin for moment calculation is the CENTER OF MASS  = ( 0.000000,  0.000000  0.095156)

-------------
DIPOLE MOMENT
-------------
                                X             Y             Z
Electronic contribution:     -0.00000       0.00000       0.38317
Nuclear contribution   :      0.00000       0.00000      -0.85640
                        -----------------------------------------
Total Dipole Moment    :     -0.00000       0.00000      -0.47324
                        -----------------------------------------
Magnitude (a.u.)       :      0.47324
Magnitude (Debye)      :      1.20287



--------------------
Rotational spectrum 
--------------------
 
Rotational constants in cm-1:     0.000000    18.842966    18.842966 
Rotational constants in MHz :     0.000000 564897.906809 564897.906809 

 Dipole components along the rotational axes: 
x,y,z [a.u.] :    -0.473235     0.000000    -0.000000 
x,y,z [Debye]:    -1.202868     0.000000    -0.000000 

 

Timings for individual modules:

Sum of individual times         ...        3.888 sec (=   0.065 min)
GTO integral calculation        ...        0.600 sec (=   0.010 min)  15.4 %
SCF iterations                  ...        1.416 sec (=   0.024 min)  36.4 %
MP2 module                      ...        1.871 sec (=   0.031 min)  48.1 %


################################################################################


                                COMPOUND JOB  3 
Basename: oh-anion-lw1x-p34-jun_Compound_3
NOTE: please remember that MaxCore and PAL settings will be ignored.

################################################################################

================================================================================
                                       INPUT FILE
================================================================================
NAME = oh-anion-lw1x-p34-jun_Compound_3.inp
|  1>     ! DefGrid3 RIJCOSX TightPNO DLPNO-CCSD(T1)-F12 MiniPrint NoPop
|  2>     %Method
|  3>       NewNCore Ga 0 End
|  4>       NewNCore Ge 0 End
|  5>       NewNCore As 0 End
|  6>       NewNCore Se 0 End
|  7>       NewNCore Br 0 End
|  8>       NewNCore Kr 0 End
|  9>       NewNCore In 0 End
| 10>       NewNCore Sn 0 End
| 11>       NewNCore Sb 0 End
| 12>       NewNCore Te 0 End
| 13>       NewNCore I  0 End
| 14>       NewNCore Xe 0 End
| 15>     End
| 16>     %Basis
| 17>       Basis         "maug-cc-pV(D+d)Z"
| 18>       AuxJ          "AutoAux"
| 19>       AuxC          "AutoAux"
| 20>       CABS          "AutoAux"
| 21>       NewECP     Ga "SK-MCDHF-RSC" End
| 22>       NewGTO     Ga "cc-pWCVDZ-PP"
| 23>                     S   1
| 24>                     1         0.0222000              1.0000000
| 25>                     P   1
| 26>                     1         0.0145000              1.0000000
| 27>                     End
| 28>       NewAuxjGTO Ga "AutoAux" End
| 29>       NewAuxcGTO Ga "AutoAux" End
| 30>       NewCabsGTO Ga "AutoAux" End
| 31>       NewECP     Ge "SK-MCDHF-RSC" End
| 32>       NewGTO     Ge "cc-pWCVDZ-PP"
| 33>                     S   1
| 34>                     1         0.0310000              1.0000000
| 35>                     P   1
| 36>                     1         0.0232000              1.0000000
| 37>                     End
| 38>       NewAuxjGTO Ge "AutoAux" End
| 39>       NewAuxcGTO Ge "AutoAux" End
| 40>       NewCabsGTO Ge "AutoAux" End
| 41>       NewECP     As "SK-MCDHF-RSC" End
| 42>       NewGTO     As "cc-pWCVDZ-PP"
| 43>                     S   1
| 44>                     1         0.0370000              1.0000000
| 45>                     P   1
| 46>                     1         0.0308000              1.0000000
| 47>                     End
| 48>       NewAuxjGTO As "AutoAux" End
| 49>       NewAuxcGTO As "AutoAux" End
| 50>       NewCabsGTO As "AutoAux" End
| 51>       NewECP     Se "SK-MCDHF-RSC" End
| 52>       NewGTO     Se "cc-pWCVDZ-PP"
| 53>                     S   1
| 54>                     1         0.0433000              1.0000000
| 55>                     P   1
| 56>                     1         0.0345000              1.0000000
| 57>                     End
| 58>       NewAuxjGTO Se "AutoAux" End
| 59>       NewAuxcGTO Se "AutoAux" End
| 60>       NewCabsGTO Se "AutoAux" End
| 61>       NewECP     Br "SK-MCDHF-RSC" End
| 62>       NewGTO     Br "cc-pWCVDZ-PP"
| 63>                     S   1
| 64>                     1         0.0502000              1.0000000
| 65>                     P   1
| 66>                     1         0.0394000              1.0000000
| 67>                     End
| 68>       NewAuxjGTO Br "AutoAux" End
| 69>       NewAuxcGTO Br "AutoAux" End
| 70>       NewCabsGTO Br "AutoAux" End
| 71>       NewECP     Kr "SK-MCDHF-RSC" End
| 72>       NewGTO     Kr "cc-pWCVDZ-PP"
| 73>                     S   1
| 74>                     1         0.0571000              1.0000000
| 75>                     P   1
| 76>                     1         0.0443000              1.0000000
| 77>                     End
| 78>       NewAuxjGTO Kr "AutoAux" End
| 79>       NewAuxcGTO Kr "AutoAux" End
[...]
Rotationally invariant grid construction     ... off

Total number of grid points                  ...     6002
Total number of batches                      ...       95
Average number of points per batch           ...       63
Average number of grid points per atom       ...     3001
UseSFitting                                  ... on

GRIDX 3
-------
General Integration Accuracy     IntAcc      ... 4.871
Radial Grid Type                 RadialGrid  ... OptM3 with GC (2021)
Angular Grid (max. ang.)         AngularGrid ... 4 (Lebedev-302)
Angular grid pruning method      GridPruning ... 4 (adaptive)
Weight generation scheme         WeightScheme... Becke
Basis function cutoff            BFCut       ... 1.0000e-10
Integration weight cutoff        WCut        ... 1.0000e-14
Angular grids for H and He will be reduced by one unit
Partially contracted basis set               ... on
Rotationally invariant grid construction     ... off

Total number of grid points                  ...    11656
Total number of batches                      ...      183
Average number of points per batch           ...       63
Average number of grid points per atom       ...     5828
UseSFitting                                  ... on

Time for X-Grid setup             =    0.125 sec

 re-compute Schwartz prescreening matrix in partically contracted basis (1) ...done (   0.081 sec)
--------------
SCF ITERATIONS
--------------
ITER       Energy         Delta-E        Max-DP      RMS-DP      [F,P]     Damp
               ***  Starting incremental Fock matrix formation  ***
                      *** Initiating the SOSCF procedure ***
                      *** Re-Reading the Fockian *** 
                      *** Removing any level shift *** 
ITER      Energy       Delta-E        Grad      Rot      Max-DP    RMS-DP
  0    -75.38309843 -75.3830984320  0.000004  0.000004  0.000006  0.000000
               *** Restarting incremental Fock matrix formation ***
                 **** Energy Check signals convergence ****
              ***Rediagonalizing the Fockian in SOSCF/NRSCF***

               *****************************************************
               *                     SUCCESS                       *
               *           SCF CONVERGED AFTER   1 CYCLES          *
               *****************************************************

Old exchange energy                            =     -8.826790828 Eh
New exchange energy                            =     -8.826789239 Eh
Exchange energy change after final integration =      0.000001589 Eh
Total energy after final integration           =    -75.383096843 Eh
Final COS-X integration done in                =     0.122 sec
Total Energy       :          -75.38309684 Eh           -2051.27835 eV
  Last Energy change         ...   -5.3149e-11  Tolerance :   1.0000e-06
  Last MAX-Density change    ...    4.4409e-16  Tolerance :   1.0000e-05
             **** THE GBW FILE WAS UPDATED (oh-anion-lw1x-p34-jun_Compound_6.gbw) ****
             **** DENSITY oh-anion-lw1x-p34-jun_Compound_6.scfp WAS UPDATED ****
             **** ENERGY FILE WAS UPDATED (oh-anion-lw1x-p34-jun_Compound_6.en.tmp) ****
             **** THE GBW FILE WAS UPDATED (oh-anion-lw1x-p34-jun_Compound_6.gbw) ****
             **** DENSITY oh-anion-lw1x-p34-jun_Compound_6.scfp WAS UPDATED ****
----------------
ORBITAL ENERGIES
----------------

  NO   OCC          E(Eh)            E(eV) 
   0   2.0000     -20.108600      -547.1828 
   1   2.0000      -0.846699       -23.0398 
   2   2.0000      -0.197430        -5.3723 
   3   2.0000      -0.064691        -1.7603 
   4   2.0000      -0.064691        -1.7603 
   5   0.0000       0.422463        11.4958 
   6   0.0000       0.907393        24.6914 
   7   0.0000       1.037391        28.2288 
   8   0.0000       1.154029        31.4027 
   9   0.0000       1.154029        31.4027 
  10   0.0000       1.235231        33.6123 
  11   0.0000       1.235231        33.6123 
  12   0.0000       1.352226        36.7959 
  13   0.0000       1.842879        50.1473 
  14   0.0000       2.145961        58.3946 
  15   0.0000       2.145975        58.3949 
  16   0.0000       2.456731        66.8511 
  17   0.0000       2.456731        66.8511 
  18   0.0000       2.473607        67.3103 
  19   0.0000       3.161214        86.0210 
  20   0.0000       3.895162       105.9928 
  21   0.0000       3.895165       105.9928 
  22   0.0000       4.120319       112.1196 
  23   0.0000       4.120319       112.1196 
  24   0.0000       4.352535       118.4385 
  25   0.0000       4.352535       118.4385 
  26   0.0000       4.353797       118.4728 
  27   0.0000       4.784304       130.1875 
  28   0.0000       4.784304       130.1875 
  29   0.0000       4.904919       133.4696 
  30   0.0000       5.345283       145.4525 
  31   0.0000       5.767674       156.9464 
  32   0.0000       6.037199       164.2805 
  33   0.0000       6.037199       164.2805 
  34   0.0000       6.280103       170.8903 
  35   0.0000       6.280131       170.8910 
  36   0.0000       7.204027       196.0315 
  37   0.0000       7.204073       196.0328 
  38   0.0000       7.311795       198.9641 
  39   0.0000       7.311795       198.9641 
  40   0.0000       7.505082       204.2237 
  41   0.0000       7.505082       204.2237 
  42   0.0000       7.915677       215.3965 
  43   0.0000       8.560818       232.9517 
  44   0.0000      19.381676       527.4022 
  45   0.0000      19.381676       527.4022 
  46   0.0000      19.963893       543.2451 
  47   0.0000      22.592823       614.7820 
  48   0.0000      30.470313       829.1394 
  49   0.0000      30.470313       829.1394 
  50   0.0000      30.541403       831.0738 
  51   0.0000      30.541403       831.0738 
  52   0.0000      30.912999       841.1855 
  53   0.0000      90.808162      2471.0157 
  54   0.0000      90.808162      2471.0157 
  55   0.0000      91.274418      2483.7032 
  56   0.0000     107.655199      2929.4469 
Total SCF time: 0 days 0 hours 0 min 0 sec 

Maximum memory used throughout the entire SCF-calculation: 58.0 MB


           ************************************************************
           *        Program running with 5 parallel MPI-processes     *
           *              working on a common directory               *
           ************************************************************

------------------------------------------------------------------------------
                                ORCA  MP2 
------------------------------------------------------------------------------

Freezing NCore=0 chemical core electrons
Initializing SHARK ... done


------------------------------------------------------------------------------
                           ORCA ORBITAL LOCALIZATION
------------------------------------------------------------------------------

Input orbitals are from                  ... oh-anion-lw1x-p34-jun_Compound_6.gbw
Output orbitals are to                   ... oh-anion-lw1x-p34-jun_Compound_6.loc
Max. number of iterations                ... 128
Localizations seeded randomly            ... off
Convergence tolerance                    ... 1.000e-06
Treshold for strong local MOs            ... 9.500e-01
Treshold for bond MOs                    ... 8.500e-01
Operator                                 ... 0
Orbital range for localization           ... 0 to 4
Localization criterion                   ... FOSTER-BOYS (AUGMENTED HESSIAN)
Doing the dipole integrals     ... o.k.
Initial value of the localization sum :     0.392247
ITERATION   0 : L=    1.9737317048 DL=  1.58e+00 (AVERGE_DL)=    0.3976787970 
ITERATION   1 : L=    2.2424096119 DL=  2.69e-01 (AVERGE_DL)=    0.1639139735 
ITERATION   2 : L=    2.2472098693 DL=  4.80e-03 (AVERGE_DL)=    0.0219094896 
ITERATION   3 : L=    2.2476169210 DL=  4.07e-04 (AVERGE_DL)=    0.0063800604 
ITERATION   4 : L=    2.2476225180 DL=  5.60e-06 (AVERGE_DL)=    0.0007481325 
ITERATION   5 : L=    2.2476226942 DL=  1.76e-07 (AVERGE_DL)=    0.0001327482 
LOCALIZATION SUM CONVERGED

------------------------------------------------------
AUGMENTED HESSIAN OPTIMIZATION OF FOSTER-BOYS ORBITALS
------------------------------------------------------

Spin operator:           0
Orbital window:          0 to 4
Number of iterations:    128
Gradient tolerance:      1.000e-06
Number of pairs:         10
Davidson threshold:      2000
Diagonalization method:  LAPACK
Iter:    0   L: 2.2476226942   Grad. norm: 2.034655e-04
   *** Detected a saddle point. ***
       Augmented Hessian eigenvalues:  3.04e-08  1.03e-08 -1.03e+00 -1.03e+00 ... 
Iter:    1   L: 2.2476227070   Grad. norm: 6.827209e-05
Iter:    2   L: 2.2476227084   Grad. norm: 9.680145e-10
   *** Likely close to a maximum now. ***
       Augmented Hessian eigenvalues:  7.36e-13 -3.45e-08 -1.03e+00 -1.03e+00 ... 
Iter:    3   L: 2.2476227084   Grad. norm: 3.227781e-13
LOCALIZATION HAS CONVERGED.

Eigenvalues of the Hessian:
  0 -3.448e-08
  1 -1.027e+00
  2 -1.027e+00
  3 -2.033e+00
  4 -2.567e+00
  5 -2.567e+00
  6 -5.268e+00
  7 -5.662e+00
  8 -5.662e+00
  9 -8.977e+00


------------------------------------------------------------------------------- 
                    LOCALIZED MOLECULAR ORBITAL COMPOSITIONS                   
------------------------------------------------------------------------------- 

The Mulliken populations for each LMO on each atom are computed
The LMO`s will be ordered according to atom index and type
  (A) Strongly localized MO`s have populations of >=0.950 on one atom
  (B) Two center bond orbitals have populations of >=0.850 on two atoms
  (C) Other MO`s are considered to be `delocalized`

FOUND  -   4 strongly local MO`s
       -   1 two center bond MO`s
       -   0 significantly delocalized MO`s

Rather strongly localized orbitals:
MO   3:   0O  -   1.000065
MO   2:   0O  -   0.994031
MO   1:   0O  -   0.994031
MO   0:   0O  -   0.994031
Bond-like localized orbitals:
MO   4:   1H  -   0.421413  and   0O  -   0.578587
Localized MO's were stored in: oh-anion-lw1x-p34-jun_Compound_6.loc



Calculating differential overlap integrals ... ok
Threshold for domain construction in prescreening: TCutDOPre = 3.0e-02

--------------------------
ELECTRON PAIR PRESCREENING
--------------------------

Dipole-based pair screening          .... used

   TCutDOij = 1.000000e-05
   TCutPre  = 1.000000e-06
   .... Finished loop over pairs
Total time spent in the prescreening                  ...     0.003 sec
sum of pair energies estimated for screened out pairs ...       0.000000000000 Eh

---------------------------
MAP CONSTRUCTION THRESHOLDS
---------------------------
    TCutMKN     ...     1.0e-03
    TCutDO      ...     5.0e-03
    TCutC(MO)   ...     1.0e-03
    TCutC(PAO)  ...     1.0e-03

--------------------------------
LOCAL RI TRANSFORMATION (IAVPAO)
--------------------------------

Orbital window:       0 to 4
Number of PAOs:      57
Basis functions:     57 (21 shells)
Aux. functions:     277 (75 shells)
Use SHARK:           on

Processing maps (0.0 sec)
Average map sizes:
   Aux shells -> MOs               5.0
   Aux shells -> PAOs             57.0
   MOs        -> AO shells        21.0
   PAOs       -> AO shells        21.0

Calculating integrals (0.0 sec, 0.605 MB)
Sorting integrals (0.0 sec, 0.602 MB)
Total time for the integral transformation: 0.1 sec

----------------------------
Local MP2 Energy Calculation
----------------------------
Number of orbital pairs included:     15
Truncation parameters:
    PAOOverlapThresh    =        1.000e-08
    TCutPNO             =        1.000e-09

Spin component scaling                      .... not used
MP2 energy scaling factor                   .... 1.000

Formation of semicanonical amplitudes.
 10% done.
 20% done.
 30% done.
 40% done.
 50% done.
 60% done.
 70% done.
 80% done.
 90% done.
100% done.

Finished the LMP2 guess in 0.0 sec.

Average number of PAOs per pair         57.0
Average number of nrPAOs per pair       52.0
Average number of PNOs per pair         46.1
Average number of AUX  per pair        273.5

Semicanonical MP2 energy:                   -0.309807365107 Eh
Semicanonical MP2 energy in PNO basis:      -0.309806352110 Eh

Initial amplitudes guess done. Entering DLPNO-MP2 iteration loop:
   Max. no of iterations          ...  100
   Energy convergence tolerance   ...    1.0e-06 Eh
   Residual convergence tolerance ...    5.0e-06
   Fock matrix cutoff             ...    1.0e-05 Eh
   Max # vectors in DIIS          ...  7
   Start iteration of DIIS        ...  0
   Levelshift                     ...  2.000e-01 Eh
   Damping before turning on DIIS ...  5.000e-01
   Damping after turning on DIIS  ...  0.000e+00

                           *** Turning on DIIS ***
Iter=   0:  ECORR= -0.315552458886  DE=   5.7e-03 RMAX=   3.1e-02
Iter=   1:  ECORR= -0.320518970281  DE=   5.0e-03 RMAX=   1.6e-02
Iter=   2:  ECORR= -0.321219160091  DE=   7.0e-04 RMAX=   3.6e-03
Iter=   3:  ECORR= -0.321425208691  DE=   2.1e-04 RMAX=   1.1e-03
Iter=   4:  ECORR= -0.321451612017  DE=   2.6e-05 RMAX=   1.3e-04
Iter=   5:  ECORR= -0.321453140574  DE=   1.5e-06 RMAX=   4.8e-05
Iter=   6:  ECORR= -0.321452672307  DE=   4.7e-07 RMAX=   5.3e-06
Iter=   7:  ECORR= -0.321452641486  DE=   3.1e-08 RMAX=   3.6e-06 => CONVERGED

Finished the DLPNO-MP2 iterations in 0.7 sec.

LMP2 correlation energy (all non-screened pairs)      ...     -0.321452641486 Eh
Semicanonical PNO correction to energy                ...     -0.000001012997 Eh
Sum of pair energies estimated for screened out pairs ...      0.000000000000 Eh
                                                         -----------------------
Total:                                                ...     -0.321453654483 Eh

------------------------------------------------------
 DLPNO-MP2 CORRELATION ENERGY:      -0.321453654483 Eh
------------------------------------------------------

TIMINGS FOR DLPNO-MP2:
Localization                             ...        0.207 sec
Differential overlap integrals           ...        0.223 sec
Prescreening                             ...        0.122 sec
Map setup                                ...        0.000 sec
(ia|v) trafo                             ...        0.077 sec
Semicanonical amplitudes                 ...        0.014 sec
PNO construction                         ...        0.005 sec
DLPNO-MP2 iterations                     ...        0.660 sec
                                             ----------------
Total time                                          1.721 sec


---------------------------------------
MP2 TOTAL ENERGY:      -75.704550497 Eh
---------------------------------------

Maximum memory used throughout the entire MP2-calculation: 105.5 MB

-------------------------   --------------------
FINAL SINGLE POINT ENERGY       -75.704550497139
-------------------------   --------------------


                            ***************************************
                            *     ORCA property calculations      *
                            ***************************************


  WARNING: The energy has been calculated at the MP2 level but the densities
           used in the property calculations are still SCF densities
           MP2 response densities have not been calculated 
           use %mp2 Density relaxed end
           or  %mp2 Density unrelaxed end

                                    ---------------------
                                    Active property flags
                                    ---------------------
   (+) Dipole Moment


------------------------------------------------------------------------------
                       ORCA ELECTRIC PROPERTIES CALCULATION
------------------------------------------------------------------------------

Dipole Moment Calculation                       ... on
Quadrupole Moment Calculation                   ... off
Polarizability Calculation                      ... off
GBWName                                         ... oh-anion-lw1x-p34-jun_Compound_6.gbw
Electron density                                ... oh-anion-lw1x-p34-jun_Compound_6.scfp
The origin for moment calculation is the CENTER OF MASS  = ( 0.000000,  0.000000  0.095156)

-------------
DIPOLE MOMENT
-------------
                                X             Y             Z
Electronic contribution:      0.00000      -0.00000       0.38351
Nuclear contribution   :      0.00000       0.00000      -0.85640
                        -----------------------------------------
Total Dipole Moment    :      0.00000      -0.00000      -0.47289
                        -----------------------------------------
Magnitude (a.u.)       :      0.47289
Magnitude (Debye)      :      1.20199



--------------------
Rotational spectrum 
--------------------
 
Rotational constants in cm-1:     0.000000    18.842966    18.842966 
Rotational constants in MHz :     0.000000 564897.906809 564897.906809 

 Dipole components along the rotational axes: 
x,y,z [a.u.] :    -0.472891    -0.000000     0.000000 
x,y,z [Debye]:    -1.201992    -0.000000     0.000000 

 

Timings for individual modules:

Sum of individual times         ...        4.178 sec (=   0.070 min)
GTO integral calculation        ...        0.614 sec (=   0.010 min)  14.7 %
SCF iterations                  ...        1.398 sec (=   0.023 min)  33.5 %
MP2 module                      ...        2.167 sec (=   0.036 min)  51.9 %
================================================================================

----- Orbital basis set information -----
Your calculation utilizes the basis: def2-SVP
   F. Weigend and R. Ahlrichs, Phys. Chem. Chem. Phys. 7, 3297 (2005).



----------------------------------------------------------------------------------------------
                                        COMPOUND BLOCK                                        
                                     SUMMARY OF VARIABLES                                     
----------------------------------------------------------------------------------------------

Variable Name                                           Value             Evaluation String
-------------                                           -----             -----------------
HF_DZ                                    |             -75.41291373    |  
EC_DZ                                    |              -0.29358083    |  
CC_DZ                                    |              -0.28779056    |  EC_DZ-T_DZ
T_DZ                                     |              -0.00579027    |  
HF_TZ                                    |             -75.41618509    |  
EC_TZ                                    |              -0.31444599    |  
CC_TZ                                    |              -0.30273243    |  EC_TZ-T_TZ
T_TZ                                     |              -0.01171356    |  
HF_CBS                                   |             -75.41668122    |  HF_TZ-(HF_TZ-HF_DZ)*3^-5/(3^-5-2^-5)
CC_CBS                                   |              -0.30529300    |  CC_TZ-(CC_TZ-CC_DZ)*3^-4.7405/(3^-4.7405-2^-4.7405)
T_CBS                                    |              -0.01616169    |  T_TZ-(T_TZ-T_DZ)*3^-2.0879/(3^-2.0879-2^-2.0879)
MP_FC                                    |             -75.65342028    |  
MP_FU                                    |             -75.70455050    |  
MP_CV                                    |              -0.05113022    |  MP_FU-MP_FC
MP_PP                                    |             -75.64751497    |  
MP_DK                                    |             -75.69942708    |  
MP_REL                                   |              -0.05191211    |  MP_DK-MP_PP
LW1X                                     |             -75.84117825    |  HF_CBS+CC_CBS+T_CBS+MP_CV+MP_REL
                             ****ORCA TERMINATED NORMALLY****
TOTAL RUN TIME: 0 days 0 hours 0 minutes 58 seconds 595 msec
