
                                 *****************
                                 * O   R   C   A *
                                 *****************

                                            #,                                       
                                            ###                                      
                                            ####                                     
                                            #####                                    
                                            ######                                   
                                           ########,                                 
                                     ,,################,,,,,                         
                               ,,#################################,,                 
                          ,,##########################################,,             
                       ,#########################################, ''#####,          
                    ,#############################################,,   '####,        
                  ,##################################################,,,,####,       
                ,###########''''           ''''###############################       
              ,#####''   ,,,,##########,,,,          '''####'''          '####       
            ,##' ,,,,###########################,,,                        '##       
           ' ,,###''''                  '''############,,,                           
         ,,##''                                '''############,,,,        ,,,,,,###''
      ,#''                                            '''#######################'''  
     '                                                          ''''####''''         
             ,#######,   #######,   ,#######,      ##                                
            ,#'     '#,  ##    ##  ,#'     '#,    #''#        ######   ,####,        
            ##       ##  ##   ,#'  ##            #'  '#       #        #'  '#        
            ##       ##  #######   ##           ,######,      #####,   #    #        
            '#,     ,#'  ##    ##  '#,     ,#' ,#      #,         ##   #,  ,#        
             '#######'   ##     ##  '#######'  #'      '#     #####' # '####'        



                  #######################################################
                  #                        -***-                        #
                  #          Department of theory and spectroscopy      #
                  #    Directorship and core code : Frank Neese         #
                  #        Max Planck Institute fuer Kohlenforschung    #
                  #                Kaiser Wilhelm Platz 1               #
                  #                 D-45470 Muelheim/Ruhr               #
                  #                      Germany                        #
                  #                                                     #
                  #                  All rights reserved                #
                  #                        -***-                        #
                  #######################################################


                         Program Version 5.0.1 -  RELEASE  -


 With contributions from (in alphabetic order):
   Daniel Aravena         : Magnetic Suceptibility
   Michael Atanasov       : Ab Initio Ligand Field Theory (pilot matlab implementation)
   Alexander A. Auer      : GIAO ZORA, VPT2 properties, NMR spectrum
   Ute Becker             : Parallelization
   Giovanni Bistoni       : ED, misc. LED, open-shell LED, HFLD
   Martin Brehm           : Molecular dynamics
   Dmytro Bykov           : SCF Hessian
   Vijay G. Chilkuri      : MRCI spin determinant printing, contributions to CSF-ICE
   Dipayan Datta          : RHF DLPNO-CCSD density
   Achintya Kumar Dutta   : EOM-CC, STEOM-CC
   Dmitry Ganyushin       : Spin-Orbit,Spin-Spin,Magnetic field MRCI
   Miquel Garcia          : C-PCM and meta-GGA Hessian, CC/C-PCM, Gaussian charge scheme
   Yang Guo               : DLPNO-NEVPT2, F12-NEVPT2, CIM, IAO-localization
   Andreas Hansen         : Spin unrestricted coupled pair/coupled cluster methods
   Benjamin Helmich-Paris : MC-RPA, TRAH-SCF, COSX integrals
   Lee Huntington         : MR-EOM, pCC
   Robert Izsak           : Overlap fitted RIJCOSX, COSX-SCS-MP3, EOM
   Marcus Kettner         : VPT2
   Christian Kollmar      : KDIIS, OOCD, Brueckner-CCSD(T), CCSD density, CASPT2, CASPT2-K
   Simone Kossmann        : Meta GGA functionals, TD-DFT gradient, OOMP2, MP2 Hessian
   Martin Krupicka        : Initial AUTO-CI
   Lucas Lang             : DCDCAS
   Marvin Lechner         : AUTO-CI (C++ implementation), FIC-MRCC
   Dagmar Lenk            : GEPOL surface, SMD
   Dimitrios Liakos       : Extrapolation schemes; Compound Job, initial MDCI parallelization
   Dimitrios Manganas     : Further ROCIS development; embedding schemes
   Dimitrios Pantazis     : SARC Basis sets
   Anastasios Papadopoulos: AUTO-CI, single reference methods and gradients
   Taras Petrenko         : DFT Hessian,TD-DFT gradient, ASA, ECA, R-Raman, ABS, FL, XAS/XES, NRVS
   Peter Pinski           : DLPNO-MP2, DLPNO-MP2 Gradient
   Christoph Reimann      : Effective Core Potentials
   Marius Retegan         : Local ZFS, SOC
   Christoph Riplinger    : Optimizer, TS searches, QM/MM, DLPNO-CCSD(T), (RO)-DLPNO pert. Triples
   Tobias Risthaus        : Range-separated hybrids, TD-DFT gradient, RPA, STAB
   Michael Roemelt        : Original ROCIS implementation
   Masaaki Saitow         : Open-shell DLPNO-CCSD energy and density
   Barbara Sandhoefer     : DKH picture change effects
   Avijit Sen             : IP-ROCIS
   Kantharuban Sivalingam : CASSCF convergence, NEVPT2, FIC-MRCI
   Bernardo de Souza      : ESD, SOC TD-DFT
   Georgi Stoychev        : AutoAux, RI-MP2 NMR, DLPNO-MP2 response
   Willem Van den Heuvel  : Paramagnetic NMR
   Boris Wezisla          : Elementary symmetry handling
   Frank Wennmohs         : Technical directorship


 We gratefully acknowledge several colleagues who have allowed us to
 interface, adapt or use parts of their codes:
   Stefan Grimme, W. Hujo, H. Kruse, P. Pracht,  : VdW corrections, initial TS optimization,
                  C. Bannwarth, S. Ehlert          DFT functionals, gCP, sTDA/sTD-DF
   Ed Valeev, F. Pavosevic, A. Kumar             : LibInt (2-el integral package), F12 methods
   Garnet Chan, S. Sharma, J. Yang, R. Olivares  : DMRG
   Ulf Ekstrom                                   : XCFun DFT Library
   Mihaly Kallay                                 : mrcc  (arbitrary order and MRCC methods)
   Jiri Pittner, Ondrej Demel                    : Mk-CCSD
   Frank Weinhold                                : gennbo (NPA and NBO analysis)
   Christopher J. Cramer and Donald G. Truhlar   : smd solvation model
   Lars Goerigk                                  : TD-DFT with DH, B97 family of functionals
   V. Asgeirsson, H. Jonsson                     : NEB implementation
   FAccTs GmbH                                   : IRC, NEB, NEB-TS, DLPNO-Multilevel, CI-OPT
                                                   MM, QMMM, 2- and 3-layer-ONIOM, Crystal-QMMM,
                                                   LR-CPCM, SF, NACMEs, symmetry and pop. for TD-DFT,
                                                   nearIR, NL-DFT gradient (VV10), updates on ESD,
                                                   ML-optimized integration grids
   S Lehtola, MJT Oliveira, MAL Marques          : LibXC Library
   Liviu Ungur et al                             : ANISO software


 Your calculation uses the libint2 library for the computation of 2-el integrals
 For citations please refer to: http://libint.valeyev.net

 Your ORCA version has been built with support for libXC version: 5.1.0
 For citations please refer to: https://tddft.org/programs/libxc/

 This ORCA versions uses:
   CBLAS   interface :  Fast vector & matrix operations
   LAPACKE interface :  Fast linear algebra routines
   SCALAPACK package :  Parallel linear algebra routines
   Shared memory     :  Shared parallel matrices
   BLAS/LAPACK       :  OpenBLAS 0.3.15  USE64BITINT DYNAMIC_ARCH NO_AFFINITY SkylakeX SINGLE_THREADED
        Core in use  :  SkylakeX
   Copyright (c) 2011-2014, The OpenBLAS Project




################################################################################


                                COMPOUND JOB MainJOB 
Basename: oh-anion_lw1x-jun_Compound_0

################################################################################

================================================================================
                                       INPUT FILE
================================================================================
NAME = oh-anion_lw1x-jun_Compound_0.inp
|  1> %Maxcore 1000
|  2>  %Pal nprocs 5 End
|  3>  
|  4>  * xyz -1 1
|  5>  O        0.000000    0.000000    0.107924 
|  6>  H        0.000000    0.000000   -0.863393 
|  7>  *
|  8>  
|  9> 
| 10>                          ****END OF INPUT****
================================================================================
================================================================================

----- Orbital basis set information -----
Your calculation utilizes the basis: def2-SVP
   F. Weigend and R. Ahlrichs, Phys. Chem. Chem. Phys. 7, 3297 (2005).



################################################################################


                                COMPOUND JOB  1 
Basename: oh-anion_lw1x-jun_Compound_1
NOTE: please remember that MaxCore and PAL settings will be ignored.

################################################################################

================================================================================
                                       INPUT FILE
================================================================================
NAME = oh-anion_lw1x-jun_Compound_1.inp
|  1>     ! DefGrid3 RIJCOSX TightPNO DLPNO-CCSD(T1)-F12 MiniPrint NoPop
|  2>     %Basis
|  3>       Basis "maug-cc-pV(D+d)Z"
|  4>       AuxJ  "AutoAux"
|  5>       AuxC  "AutoAux"
|  6>       CABS  "AutoAux"
|  7>     End
|  8> 
|  9>                          ****END OF INPUT****
================================================================================
Warning! AutoAux has not been tested for CABS - use at your own risk!
================================================================================

----- Orbital basis set information -----
Your calculation utilizes the basis: jun-cc-pV(D+d)Z 
  E. Papajak, D. G. Truhlar, J. Chem. Theory Comput. 7, 10-18 (2011).

----- AuxJ basis set information -----
Your calculation utilizes the AutoAux generation procedure.
  G. L. Stoychev, A. A. Auer, F. Neese, J. Chem. Theory Comput. 13, 554 (2017)

----- AuxC basis set information -----
Your calculation utilizes the AutoAux generation procedure.
  G. L. Stoychev, A. A. Auer, F. Neese, J. Chem. Theory Comput. 13, 554 (2017)

----- CABS information -----
Your calculation utilizes the AutoAux generation procedure.
  G. L. Stoychev, A. A. Auer, F. Neese, J. Chem. Theory Comput. 13, 554 (2017)


                    <<< The CABS basis set will be decontracted >>>

================================================================================
                                        WARNINGS
                       Please study these warnings very carefully!
================================================================================


WARNING: Post HF methods need fully converged wavefunctions
  ===> : Setting SCFConvForced true
         You can overwrite this default with %scf ConvForced false 


WARNING: MDCI localization with Augmented Hessian Foster-Boys
  ===> : Switching off randomization!

INFO   : the flag for use of the SHARK integral package has been found!


                       ****************************
                       * Single Point Calculation *
                       ****************************

---------------------------------
CARTESIAN COORDINATES (ANGSTROEM)
---------------------------------
  O      0.000000    0.000000    0.107924
  H      0.000000    0.000000   -0.863393

----------------------------
CARTESIAN COORDINATES (A.U.)
----------------------------
  NO LB      ZA    FRAG     MASS         X           Y           Z
   0 O     8.0000    0    15.999    0.000000    0.000000    0.203947
   1 H     1.0000    0     1.008    0.000000    0.000000   -1.631576



           ************************************************************
           *        Program running with 5 parallel MPI-processes     *
           *              working on a common directory               *
           ************************************************************
------------------------------------------------------------------------------
                   ___                                                        
                  /   \      - P O W E R E D   B Y -                         
                 /     \                                                     
                 |  |  |   _    _      __       _____    __    __             
                 |  |  |  | |  | |    /  \     |  _  \  |  |  /  |          
                  \  \/   | |  | |   /    \    | | | |  |  | /  /          
                 / \  \   | |__| |  /  /\  \   | |_| |  |  |/  /          
                |  |  |   |  __  | /  /__\  \  |    /   |      \           
                |  |  |   | |  | | |   __   |  |    \   |  |\   \          
                \     /   | |  | | |  |  |  |  | |\  \  |  | \   \       
                 \___/    |_|  |_| |__|  |__|  |_| \__\ |__|  \__/        
                                                                              
                      - O R C A' S   B I G   F R I E N D -                    
                                      &                                       
                       - I N T E G R A L  F E E D E R -                       
                                                                              
 v1 FN, 2020, v2 2021                                                         
------------------------------------------------------------------------------


Reading SHARK input file oh-anion_lw1x-jun_Compound_1.SHARKINP.tmp ... ok
----------------------
SHARK INTEGRAL PACKAGE
----------------------

Number of atoms                             ...      2
Number of basis functions                   ...     23
Number of shells                            ...     11
Maximum angular momentum                    ...      2
Integral batch strategy                     ... SHARK/LIBINT Hybrid
RI-J (if used) integral strategy            ... SPLIT-RIJ (Revised 2003 algorithm where possible)
Printlevel                                  ...      1
Contraction scheme used                     ... SEGMENTED contraction
Coulomb Range Separation                    ... NOT USED
Exchange Range Separation                   ... NOT USED
Finite Nucleus Model                        ... NOT USED
Auxiliary Coulomb fitting basis             ... AVAILABLE
   # of basis functions in Aux-J            ...    149
   # of shells in Aux-J                     ...     55
   Maximum angular momentum in Aux-J        ...      3
Auxiliary J/K fitting basis                 ... NOT available
Auxiliary Correlation fitting basis         ... AVAILABLE
   # of basis functions in Aux-C            ...    149
   # of shells in Aux-C                     ...     55
   Maximum angular momentum in Aux-C        ...      3
Auxiliary 'external' fitting basis          ... NOT available
Integral threshold                          ...     1.000000e-10
Primitive cut-off                           ...     1.000000e-11
Primitive pair pre-selection threshold      ...     1.000000e-11

Calculating pre-screening integrals         ... done (  0.0 sec) Dimension = 11
Organizing shell pair data                  ... done (  0.0 sec)
Shell pair information
Total number of shell pairs                 ...        66
Shell pairs after pre-screening             ...        66
Total number of primitive shell pairs       ...       497
Primitive shell pairs kept                  ...       487
          la=0 lb=0:     21 shell pairs
          la=1 lb=0:     24 shell pairs
          la=1 lb=1:     10 shell pairs
          la=2 lb=0:      6 shell pairs
          la=2 lb=1:      4 shell pairs
          la=2 lb=2:      1 shell pairs

Calculating one electron integrals          ... done (  0.0 sec)
Calculating RI/J V-Matrix + Cholesky decomp.... done (  0.0 sec)
Calculating RI/C V-Matrix + Cholesky decomp.... done (  0.0 sec)
Calculating Nuclear repulsion               ... done (  0.0 sec) ENN=      4.358430529271 Eh

SHARK setup successfully completed in   0.1 seconds

Maximum memory used throughout the entire GTOINT-calculation: 11.8 MB


           ************************************************************
           *        Program running with 5 parallel MPI-processes     *
           *              working on a common directory               *
           ************************************************************

Diagonalization of the overlap matrix:
Smallest eigenvalue                        ... 2.171e-02
Time for diagonalization                   ...    0.001 sec
Threshold for overlap eigenvalues          ... 1.000e-08
Number of eigenvalues below threshold      ... 0
Time for construction of square roots      ...    0.001 sec
Total time needed                          ...    0.002 sec

Time for model grid setup =    0.018 sec

Loading Hartree-Fock densities                     ... done
Calculating cut-offs                               ... done
Initializing the effective Hamiltonian             ... done
Setting up the integral package (SHARK)            ... done
Starting the Coulomb interaction                   ... done (   0.0 sec)
Reading the grid                                   ... done
Mapping shells                                     ... done
Starting the XC term evaluation                    ... done (   0.0 sec)
Transforming the Hamiltonian                       ... done (   0.0 sec)
Diagonalizing the Hamiltonian                      ... done (   0.0 sec)
Back transforming the eigenvectors                 ... done (   0.0 sec)
Now organizing SCF variables                       ... done
--------------------
COSX GRID GENERATION
--------------------

GRIDX 1
-------
General Integration Accuracy     IntAcc      ... 4.020
Radial Grid Type                 RadialGrid  ... OptM3 with GC (2021)
Angular Grid (max. ang.)         AngularGrid ... 2 (Lebedev-110)
Angular grid pruning method      GridPruning ... 4 (adaptive)
Weight generation scheme         WeightScheme... Becke
Basis function cutoff            BFCut       ... 1.0000e-10
Integration weight cutoff        WCut        ... 1.0000e-14
Angular grids for H and He will be reduced by one unit
Partially contracted basis set               ... on
Rotationally invariant grid construction     ... off

Total number of grid points                  ...     3113
Total number of batches                      ...       50
Average number of points per batch           ...       62
Average number of grid points per atom       ...     1556
UseSFitting                                  ... on

GRIDX 2
-------
General Integration Accuracy     IntAcc      ... 4.338
Radial Grid Type                 RadialGrid  ... OptM3 with GC (2021)
Angular Grid (max. ang.)         AngularGrid ... 3 (Lebedev-194)
Angular grid pruning method      GridPruning ... 4 (adaptive)
Weight generation scheme         WeightScheme... Becke
Basis function cutoff            BFCut       ... 1.0000e-10
Integration weight cutoff        WCut        ... 1.0000e-14
Angular grids for H and He will be reduced by one unit
Partially contracted basis set               ... on
Rotationally invariant grid construction     ... off

Total number of grid points                  ...     6758
Total number of batches                      ...      107
Average number of points per batch           ...       63
Average number of grid points per atom       ...     3379
UseSFitting                                  ... on

GRIDX 3
-------
General Integration Accuracy     IntAcc      ... 4.871
Radial Grid Type                 RadialGrid  ... OptM3 with GC (2021)
Angular Grid (max. ang.)         AngularGrid ... 4 (Lebedev-302)
Angular grid pruning method      GridPruning ... 4 (adaptive)
Weight generation scheme         WeightScheme... Becke
Basis function cutoff            BFCut       ... 1.0000e-10
Integration weight cutoff        WCut        ... 1.0000e-14
Angular grids for H and He will be reduced by one unit
Partially contracted basis set               ... on
Rotationally invariant grid construction     ... off

Total number of grid points                  ...    12840
Total number of batches                      ...      202
Average number of points per batch           ...       63
Average number of grid points per atom       ...     6420
UseSFitting                                  ... on

Time for X-Grid setup             =    0.078 sec

 re-compute Schwartz prescreening matrix in partically contracted basis (1) ...done (   0.069 sec)
--------------
SCF ITERATIONS
--------------
ITER       Energy         Delta-E        Max-DP      RMS-DP      [F,P]     Damp
               ***  Starting incremental Fock matrix formation  ***
  0    -75.1717744615   0.000000000000 0.10540960  0.01047905  0.4606658 0.7000
  1    -75.2655751410  -0.093800679520 0.07092673  0.00752996  0.2555897 0.7000
                               ***Turning on DIIS***
  2    -75.3102355254  -0.044660384391 0.03518363  0.00397928  0.1187139 0.7000
  3    -75.5080853397  -0.197849814271 0.04509021  0.00531904  0.0518289 0.0000
  4    -75.3171539429   0.190931396736 0.00928393  0.00112415  0.0193655 0.0000
                      *** Initiating the SOSCF procedure ***
                           *** Shutting down DIIS ***
                      *** Re-Reading the Fockian *** 
                      *** Removing any level shift *** 
ITER      Energy       Delta-E        Grad      Rot      Max-DP    RMS-DP
  5    -75.39054582  -0.0733918752  0.001392  0.001392  0.001844  0.000255
               *** Restarting incremental Fock matrix formation ***
  6    -75.39279318  -0.0022473620  0.000608  0.000859  0.001185  0.000164
  7    -75.39279861  -0.0000054280  0.000242  0.000583  0.000938  0.000117
  8    -75.39279997  -0.0000013615  0.000076  0.000095  0.000120  0.000012
                 **** Energy Check signals convergence ****
              ***Rediagonalizing the Fockian in SOSCF/NRSCF***

               *****************************************************
               *                     SUCCESS                       *
               *           SCF CONVERGED AFTER   9 CYCLES          *
               *****************************************************

Old exchange energy                            =     -8.731317972 Eh
New exchange energy                            =     -8.731275518 Eh
Exchange energy change after final integration =      0.000042454 Eh
Total energy after final integration           =    -75.392757548 Eh
Final COS-X integration done in                =     0.039 sec
Total Energy       :          -75.39275755 Eh           -2051.54123 eV
  Last Energy change         ...   -3.3242e-08  Tolerance :   1.0000e-06
  Last MAX-Density change    ...    8.8818e-16  Tolerance :   1.0000e-05
             **** THE GBW FILE WAS UPDATED (oh-anion_lw1x-jun_Compound_1.gbw) ****
             **** DENSITY oh-anion_lw1x-jun_Compound_1.scfp WAS UPDATED ****
             **** ENERGY FILE WAS UPDATED (oh-anion_lw1x-jun_Compound_1.en.tmp) ****
             **** THE GBW FILE WAS UPDATED (oh-anion_lw1x-jun_Compound_1.gbw) ****
             **** DENSITY oh-anion_lw1x-jun_Compound_1.scfp WAS UPDATED ****
----------------
ORBITAL ENERGIES
----------------

  NO   OCC          E(Eh)            E(eV) 
   0   2.0000     -20.198658      -549.6334 
   1   2.0000      -0.904025       -24.5998 
   2   2.0000      -0.250517        -6.8169 
   3   2.0000      -0.108102        -2.9416 
   4   2.0000      -0.108102        -2.9416 
   5   0.0000       0.384132        10.4528 
   6   0.0000       0.443535        12.0692 
   7   0.0000       0.443535        12.0692 
   8   0.0000       0.456138        12.4122 
   9   0.0000       0.587798        15.9948 
  10   0.0000       1.295964        35.2650 
  11   0.0000       1.642739        44.7012 
  12   0.0000       1.723641        46.9027 
  13   0.0000       1.723641        46.9027 
  14   0.0000       1.890397        51.4403 
  15   0.0000       1.890397        51.4403 
  16   0.0000       2.171211        59.0816 
  17   0.0000       2.796958        76.1091 
  18   0.0000       3.343108        90.9706 
  19   0.0000       3.343141        90.9715 
  20   0.0000       3.665119        99.7329 
  21   0.0000       3.665119        99.7329 
  22   0.0000       4.394559       119.5820 
Total SCF time: 0 days 0 hours 0 min 0 sec 

Maximum memory used throughout the entire SCF-calculation: 41.7 MB


           ************************************************************
           *        Program running with 5 parallel MPI-processes     *
           *              working on a common directory               *
           ************************************************************


------------------------------------------------------------------------------- 
                              ORCA-MATRIX DRIVEN CI                            
------------------------------------------------------------------------------- 


Wavefunction type
-----------------
Correlation treatment                      ...      CCSD     
Single excitations                         ... ON
Orbital optimization                       ... OFF
Calculation of Z vector                    ... OFF
Calculation of Brueckner orbitals          ... OFF
Perturbative triple excitations            ... ON
Calculation of F12 correction              ... ON
   Using RI for F12 correction             ... ON
   GSO occupation number cut-off           ... 0.000e+00
Frozen core treatment                      ... chemical core (2 el)
Reference Wavefunction                     ... RHF
  Internal Orbitals:     1 ...    4 (  4 MO's/  8 electrons)
  Virtual  Orbitals:     5 ...   22 ( 18 MO's              )
Number of AO's                             ...     23
Number of electrons                        ...     10
Number of correlated electrons             ...      8

Algorithmic settings
--------------------
Integral transformation                    ... All integrals via the RI transformation
K(C) Formation                             ... RI-DLPNO
   PNO-Integral Storage                    ... ON DISK
   PNO occupation number cut-off           ... 1.000e-07
   Singles PNO occupation number cut-off   ... 3.000e-09
   PNO Mulliken prescreening cut-off       ... 1.000e-03
   Domain cut-off (Mulliken population)    ... 1.000e-03
   PNO Normalization                       ...    1
Maximum number of iterations               ...        50
Convergence tolerance (max. residuum)      ... 2.500e-05
Level shift for amplitude update           ... 2.000e-01
Maximum number of DIIS vectors             ...         7
DIIS turned on at iteration                ...         0
Damping before turning on DIIS             ...     0.500
Damping after turning on DIIS              ...     0.000
Pair specific amplitude update             ... OFF
Natural orbital iterations                 ... OFF
Perturbative natural orbital generation    ... OFF
Printlevel                                 ... 2

Singles Fock matrix elements calculated using PNOs.

Memory handling:
----------------
Maximum memory for working arrays          ...   1000 MB
Data storage in matrix containers          ... UNCOMPRESSED
Data type for integral storage             ... DOUBLE
In-Core Storage of quantities:
   Amplitudes+Sigma Vector      ... NO
   J+K operators                ... NO
   DIIS vectors                 ... NO
   3-external integrals         ... NO
   4-external integrals         ... NO

Localization treatment:
-----------------------
Localization option                        ...    6
Localization threshhold                    ... -1.0e+00
Using relative localization threshhold     ... 1.0e-08
Neglect threshold for strong pairs         ... 1.000e-05 Eh
Prescreening threshold for very weak pairs ... 1.000e-07 Eh

Initializing the integral package          ... done
Localizing the valence orbitals
------------------------------------------------------------------------------
                           ORCA ORBITAL LOCALIZATION
------------------------------------------------------------------------------

Input orbitals are from                  ... oh-anion_lw1x-jun_Compound_1.gbw
Output orbitals are to                   ... oh-anion_lw1x-jun_Compound_1.loc
Max. number of iterations                ... 128
Localizations seeded randomly            ... off
Convergence tolerance                    ... 1.000e-06
Using relative localization threshhold   ... 1.000e-08
Treshold for strong local MOs            ... 9.500e-01
Treshold for bond MOs                    ... 8.500e-01
Operator                                 ... 0
Orbital range for localization           ... 1 to 4
Localization criterion                   ... FOSTER-BOYS (AUGMENTED HESSIAN)
Doing the dipole integrals     ... o.k.
Initial value of the localization sum :     1.185126
ITERATION   0 : L=    2.1617074408 DL=  9.77e-01 (AVERGE_DL)=    0.4034396507 
ITERATION   1 : L=    2.2129853919 DL=  5.13e-02 (AVERGE_DL)=    0.0924463367 
ITERATION   2 : L=    2.2131834327 DL=  1.98e-04 (AVERGE_DL)=    0.0057451552 
ITERATION   3 : L=    2.2131954824 DL=  1.20e-05 (AVERGE_DL)=    0.0014171378 
ITERATION   4 : L=    2.2131960364 DL=  5.54e-07 (AVERGE_DL)=    0.0003038790 
LOCALIZATION SUM CONVERGED

------------------------------------------------------
AUGMENTED HESSIAN OPTIMIZATION OF FOSTER-BOYS ORBITALS
------------------------------------------------------

Spin operator:           0
Orbital window:          1 to 4
Number of iterations:    128
Gradient tolerance:      1.000e-06
Number of pairs:         6
Davidson threshold:      2000
Diagonalization method:  LAPACK
Iter:    0   L: 2.2131960364   Grad. norm: 3.494644e-04
   *** Likely close to a maximum now. ***
       Augmented Hessian eigenvalues:  3.82e-08  9.37e-09 -2.72e+00 -2.72e+00 ... 
Iter:    1   L: 2.2131960556   Grad. norm: 2.439813e-08
LOCALIZATION HAS CONVERGED.

Eigenvalues of the Hessian:
  0  8.393e-11
  1 -2.722e+00
  2 -2.722e+00
  3 -5.681e+00
  4 -5.681e+00
  5 -8.948e+00


------------------------------------------------------------------------------- 
                    LOCALIZED MOLECULAR ORBITAL COMPOSITIONS                   
------------------------------------------------------------------------------- 

The Mulliken populations for each LMO on each atom are computed
The LMO`s will be ordered according to atom index and type
  (A) Strongly localized MO`s have populations of >=0.950 on one atom
  (B) Two center bond orbitals have populations of >=0.850 on two atoms
  (C) Other MO`s are considered to be `delocalized`

FOUND  -   3 strongly local MO`s
       -   1 two center bond MO`s
       -   0 significantly delocalized MO`s

Rather strongly localized orbitals:
MO   3:   0O  -   1.008275
MO   2:   0O  -   1.008275
MO   1:   0O  -   1.008275
Bond-like localized orbitals:
MO   4:   1H  -   0.464362  and   0O  -   0.535638
Localized MO's were stored in: oh-anion_lw1x-jun_Compound_1.loc

Localizing the core orbitals
------------------------------------------------------------------------------
                           ORCA ORBITAL LOCALIZATION
------------------------------------------------------------------------------

Input orbitals are from                  ... oh-anion_lw1x-jun_Compound_1.loc
Output orbitals are to                   ... oh-anion_lw1x-jun_Compound_1.loc
Max. number of iterations                ... 128
Localizations seeded randomly            ... off
Convergence tolerance                    ... 1.000e-06
Using relative localization threshhold   ... 1.000e-08
Treshold for strong local MOs            ... 9.500e-01
Treshold for bond MOs                    ... 8.500e-01
Operator                                 ... 0
Orbital range for localization           ... 0 to 0
Localization criterion                   ... FOSTER-BOYS (AUGMENTED HESSIAN)
Doing the dipole integrals     ... o.k.

ORCA_LOC: ONLY ONE ORBITAL - SKIPPING LOCALIZATION


------------------------------------------------------------------------------- 
                    LOCALIZED MOLECULAR ORBITAL COMPOSITIONS                   
------------------------------------------------------------------------------- 

The Mulliken populations for each LMO on each atom are computed
The LMO`s will be ordered according to atom index and type
  (A) Strongly localized MO`s have populations of >=0.950 on one atom
  (B) Two center bond orbitals have populations of >=0.850 on two atoms
  (C) Other MO`s are considered to be `delocalized`

FOUND  -   1 strongly local MO`s
       -   0 two center bond MO`s
       -   0 significantly delocalized MO`s

Rather strongly localized orbitals:
MO   0:   0O  -   1.000107
Localized MO's were stored in: oh-anion_lw1x-jun_Compound_1.loc

Warning: reference  - re-canonicalizations have been set to INT 1 VIRT 1
Warning: internal orbitals are localized - no re-canonicalization of internal orbitals
Warning: UsePNO is turned on - no re-canonicalization of internal and virtual orbitals

--------------------------
CLOSED-SHELL FOCK OPERATOR
--------------------------

Restoring SHARK [2] ... ok
Entering RIJCOSX section for the Fock matrix
Trying to retrieve the full J-matrix              ... done
Updating the Fock matrix                          ... done
Making the frozen core Coulomb matrix             ... SHARKdone
Retrieving the full K-matrix                      ... done
Calculating the frozen core K-matrix              ... done
Updating the Fock matrix                          ... done
Time needed for Fock operator              ...            0.074 sec
Reference energy                           ...    -75.392800445

------------------------------
Initializing F12 data
------------------------------

Mapping basis set                  ... done
Dimension of the orbital basis set  = 23
Dimension of the CABS basis set     = 149
Dimension of the AUX basis set      = 149
Threshold for CABS orthogonalization = 1.000e-08
Will use an exponential correlation factor -Exp(-gamma r12)/gamma (gamma= 1.200) fit to 6 Gaussians 
Correlation factor:   
  NGauss  :          6      
  Gaussian expansion: 
    a(0)=     0.275538290  d(0)=    -0.219608289 
    a(1)=     1.140545851  d(1)=    -0.254494187 
    a(2)=     3.958256930  d(2)=    -0.154545985 
    a(3)=    13.126858855  d(3)=    -0.093273119 
    a(4)=    49.287409437  d(4)=    -0.057916694 
    a(5)=   272.920084966  d(5)=    -0.035942168 
Calculating one-electron matrices                       ... done (      0.1 sec)
Calculating pre-screening matrices:                     ...
       .... 1/r12 done          (      0.1 sec)
       .... f12/r12 done        (      0.0 sec)
       .... f12 done            (      0.0 sec)
       .... f12^2 done          (      0.0 sec)
       .... [f12,[T1,f12]] done (      0.0 sec)
                                                        ... done (      0.3 sec)
Making CABS spaces                                      ... done (      0.0 sec)
Calculating 2-index 2-center F12 integrals              ... 
Two index explicit correlation integrals  op=0          ... done (      0.0 sec) 
Two index explicit correlation integrals  op=1          ... done (      0.0 sec) 
Two index explicit correlation integrals  op=2          ... done (      0.0 sec) 
Two index explicit correlation integrals  op=3          ... done (      0.0 sec) 
Two index explicit correlation integrals  op=4          ... done (      0.0 sec) 
                                                            done (      0.1 sec)

--------------
DLPNO SETTINGS (2015 fully linear scaling implementation)
--------------

TCutMKN:           1.000e-03
TCutPAO:           1.000e-03
TCutPNO:           1.000e-07
TCutPNOSingles:    3.000e-09
TCutEN:            9.700e-01
TCutPAOExt:        1.000e-01
TCutPairs:         1.000e-05
TCutPre:           1.000e-07
TCutOSV:           1.000e-06
TCutDOij:          1.000e-05
TCutDO:            5.000e-03
TCutC:             1.000e-04
TCutCPAO:          1.000e-03
TCutCMO:           1.000e-03
TScaleDOMP2PreScr: 2.000e+00
TScaleMKNMP2PreScr:1.000e+01
TScalePNOMP2PreScr:1.000e+00
PAO overlap thresh 1.000e-08
Using PNOs for Singles Fock computation
Use new domains
Use fully linear algorithm
TCutTNO:           1.000e-09
TCutMP2Pairs:      1.000e-06
TCutDOStrong:      2.000e-03
TCutMKNStrong:     1.000e-02
TCutMKNWeak:       1.000e-01
TCutDOWeak:        4.000e-03
NTCutTNO:          1

--------------------------
Mulliken population of the LMOs            ... ok
Performing proximity check                 ... No problems found
Calculating differential overlap integrals ... ok

--------------------------
ELECTRON PAIR PRESCREENING
--------------------------

Dipole-based pair screening          .... used

   TCutDOij = 1.000000e-05
   TCutPre  = 1.000000e-07
   .... Finished loop over pairs
Total time spent in the prescreening                  ...     0.001 sec
sum of pair energies estimated for screened out pairs ...       0.000000000000 Eh
Thresholds for map construction and integral transformation for crude MP2:
   TCutMKN                    ...     1.0e-02
   TCutDO                     ...     1.0e-02
   TCutPairs                  ...     1.0e-05
   TCutPNO_CrudeMP2           ...     1.0e-07
   TCutPNOSingles_CrudeMP2    ...     3.0e-09
--------------------------------
LOCAL RI TRANSFORMATION (IAVPAO)
--------------------------------

Orbital window:       1 to 4
Number of PAOs:      23
Basis functions:     23 (11 shells)
Aux. functions:     149 (55 shells)
Use SHARK:           on

Processing maps (0.0 sec)
Average map sizes:
   Aux shells -> MOs               4.0
   Aux shells -> PAOs             23.0
   MOs        -> AO shells        11.0
   PAOs       -> AO shells        11.0

Calculating integrals (0.1 sec, 0.106 MB)
Sorting integrals (0.0 sec, 0.105 MB)
Total time for the integral transformation: 0.1 sec
--------------------------------
INITIAL GUESS AND PNO GENERATION
--------------------------------

PNO truncation parameters                   .... 
    PAOOverlapThresh   =        1.000e-08

    TCutPairs          =        1.000e-05
    TCutPNO            =        1.000e-07
    TCutPNOSingles     =        3.000e-09
    TCutMP2Pairs       =        1.000e-06
    TCutMKN            =        1.000e-02
    TCutDO             =        1.000e-02

Pair selection                          .... not used
Type of local MP2 treatment                 .... semi-local MP2
Strategy for PNO selection                  .... occupation number selection
Pair density normalization                  .... MP2 norm
Spin component scaling                      .... not used

   .... Finished loop over pairs
Making pair pair interaction lists          ... done

                       ===========================
                         10 OF   10 PAIRS ARE KEPT CCSD PAIRS
                          0 OF   10 PAIRS ARE KEPT MP2 PAIRS FOR (T)
                          0 OF   10 PAIRS ARE SKIPPED
                       ===========================

Total time spent in the initial guess                 ...     0.003 sec
SL-MP2 correlation energy (all non-screened pairs)    ...      -0.213751187095 Eh

Initial PNO correlation energy                        ...      -0.213751187095 Eh
sum of pair energies prescreened and skipped MP2 pairs...       0.000000000000 Eh
sum of pair energies of crude MP2 skipped pairs only  ...       0.000000000000 Eh
sum of MP2 pair energies for pairs that were not kept ...       0.000000000000 Eh
sum of PNO error estimates for the kept pairs         ...       0.000000000000 Eh
                                                          --------------------
sum of all corrections                                          0.000000000000
Initial total correlation energy                               -0.213751187095
Thresholds for map construction and integral transformation for fine MP2 and CCSD(T) calculation:
   TCutMKN   ...     1.0e-03
   TCutDO    ...     5.0e-03
   TCutPairs ...     1.0e-05
   TCutCMO   ...     1.0e-03
   TCutCPAO  ...     1.0e-03

Thresholds for map construction and integral transformation for strong Triples:
   TCutMKN   ...     1.0e-02
   TCutDO    ...     1.0e-02
   TCutCMO   ...     1.0e-03
   TCutCPAO  ...     1.0e-03

Thresholds for map construction and integral transformation for weak Triples:
   TCutMKN   ...     1.0e-01
   TCutDO    ...     2.0e-02
   TCutCMO   ...     1.0e-03
   TCutCPAO  ...     1.0e-03

--------------------------------
LOCAL RI TRANSFORMATION (IAVPAO)
--------------------------------

Orbital window:       1 to 4
Number of PAOs:      23
Basis functions:     23 (11 shells)
Aux. functions:     149 (55 shells)
Use SHARK:           on

Processing maps (0.0 sec)
Average map sizes:
   Aux shells -> MOs               4.0
   Aux shells -> PAOs             23.0
   MOs        -> AO shells        11.0
   PAOs       -> AO shells        11.0

Calculating integrals (0.1 sec, 0.106 MB)
Sorting integrals (0.0 sec, 0.105 MB)
Total time for the integral transformation: 0.1 sec
--------------------------------
INITIAL GUESS AND PNO GENERATION
--------------------------------

PNO truncation parameters                   .... 
    ScaleTCutPNO       =        1.000e-02
    PAOOverlapThresh   =        1.000e-08

    TCutPairs          =        1.000e-05
    TCutPNO            =        1.000e-07
    TCutPNOSingles     =        3.000e-09
    TCutMP2Pairs       =        1.000e-06
    TCutMKN            =        1.000e-03
    TCutDO             =        5.000e-03

Pair selection                          .... not used
Type of local MP2 treatment                 .... full local PMP2
Strategy for PNO selection                  .... occupation number selection
Pair density normalization                  .... MP2 norm
Spin component scaling                      .... not used

PASS-1: Formation of initial guess LMP2 amplitudes
Initial amplitudes guess done. Entering LMP2 iteration loop:
   Max. no of iterations          ...  50
   Energy convergence tolerance   ...    1.0e-07
   Residual convergence tolerance ...    5.0e-07
   Fock matrix cutoff             ...    1.0e-05 Eh
   DIIS convergence acceleration parameters:
        Max # vectors in DIIS     ... 7
        Start iteration of DIIS   ... 0
        Levelshift                ... 2.000e-01
        Damping factor 1          ... 5.000e-01
        Damping factor 2          ... 1.000e+00
   L-MP2 PNO cut-off              ...   1.0e-09
   L-MP2 PNO cut-off (core)       ...   1.0e-11
                           *** Turning on DIIS ***
LMP2-Iter=   0:  ELMP2= -0.219321774233  DE=   5.6e-03 RMAX=   9.3e-03
LMP2-Iter=   1:  ELMP2= -0.222865324601  DE=   3.5e-03 RMAX=   4.4e-03
LMP2-Iter=   2:  ELMP2= -0.223637875249  DE=   7.7e-04 RMAX=   1.4e-03
LMP2-Iter=   3:  ELMP2= -0.223800788723  DE=   1.6e-04 RMAX=   4.8e-04
LMP2-Iter=   4:  ELMP2= -0.223822609673  DE=   2.2e-05 RMAX=   7.2e-05
LMP2-Iter=   5:  ELMP2= -0.223823041300  DE=   4.3e-07 RMAX=   1.5e-05
LMP2-Iter=   6:  ELMP2= -0.223822920457  DE=   1.2e-07 RMAX=   2.2e-06
LMP2-Iter=   7:  ELMP2= -0.223822890530  DE=   3.0e-08 RMAX=   7.9e-07
LMP2-Iter=   8:  ELMP2= -0.223822890795  DE=   2.7e-10 RMAX=   1.3e-07
LMP2-Iter=   9:  ELMP2= -0.223822891197  DE=   4.0e-10 RMAX=   4.5e-08 => CONVERGED
PASS-2: Formation of Pair natural orbitals
   .... Finished loop over pairs

 PNO Occupation Number Statistics: 
  | Av. % of trace(Dij) retained        ... 100.000000000000
  | sigma^2 in % of trace(Dij) retained ...   3.23e-28
  | Av. % of trace(Di) retained         ... 100.000000000000
  | sigma^2 in % of trace(Di) retained  ...   7.07e-28
 Distributions of % trace(Dij) recovered:
  |       >= 99.9  ...    10 (100.0 % of all pairs)
 Distributions of % trace(Di) recovered :
  |       >= 99.9  ...     4 (100.0 % of all I-pairs )

Making pair pair interaction lists          ... done

                       ===========================
                         10 OF   10 PAIRS ARE KEPT
                       ===========================

Total time spent in the initial guess                 ...     0.020 sec
L-MP2 correlation energy (all non-screened pairs)     ...      -0.223822891197 Eh
L-MP2 PNO error correction                            ...       0.000000000000 Eh
                                                          --------------------
Initial total L-MP2 energy (non-screened pairs)       ...      -0.223822891197 Eh

Initial PNO correlation energy                        ...      -0.223822891197 Eh
sum of pair energies estimated for screened out pairs ...       0.000000000000 Eh
sum of MP2 pair energies for pairs that were not kept ...       0.000000000000 Eh
sum of PNO error estimates for the kept pairs         ...       0.000000000000 Eh
                                                          --------------------
sum of all corrections                                          0.000000000000
Initial total correlation energy                               -0.223822891197
Thresholds for map construction and integral transformation for fine MP2 and CCSD(T) calculation:
   TCutMKN   ...     1.0e-03
   TCutDO    ...     5.0e-03
   TCutPairs ...     1.0e-05
   TCutCMO   ...     1.0e-03
   TCutCPAO  ...     1.0e-03

Number of pairs in F12 (TCutDOF12 = 3.000e-04)        ...     10

Time for aux screen maps:            0.000
Time for maps after fine MP2:            0.000
-----------------------------
LOCAL RI TRANSFORMATION (IJV)
-----------------------------

Orbital window:       1 to 4
Basis functions:     23 (11 shells)
Aux. functions:     149 (55 shells)
Use SHARK:           on

Processing maps (0.0 sec)
Average map sizes:
   Aux shells -> MOs(i)            4.0
   Aux shells -> MOs(j)            4.0
   MOs        -> AO shells        11.0

Calculating integrals (0.1 sec, 0.020 MB)
Sorting integrals (0.0 sec, 0.018 MB)
Total time for the integral transformation: 0.1 sec
--------------------------------
LOCAL RI TRANSFORMATION (VABPAO)
--------------------------------

Number of PAOs:      23
Basis functions:     23 (11 shells)
Aux. functions:     149 (55 shells)
Use SHARK:           on

Processing maps (0.0 sec)
Average map sizes:
   Aux shells -> PAOs             23.0
   PAOs       -> AO shells        11.0

Calculating integrals (0.1 sec, 0.603 MB)
Finished


-------------------------------------
Pair Pair Term precalculation with     
RI-(ij|mn) and (im|jn) transformation  
ON THE FLY                             
-------------------------------------

   IBatch   1 (of   1)              ... done (    0.013 sec)
Total EXT                           ...           0.014 sec

---------------------
RI-PNO TRANSFORMATION
---------------------

Total Number of PNOs                   ...   180
Average number of PNOs per pair        ...    18
Maximal number of PNOs per pair        ...    18
   #pairs with  1 -  5 PNOs   :    0
   #pairs with  6 - 10 PNOs   :    0
   #pairs with 11 - 15 PNOs   :    0
   #pairs with 16 - 20 PNOs   :   10
   #pairs with 21 - 25 PNOs   :    0
   #pairs with 26 - 30 PNOs   :    0
   #pairs with 31 - 35 PNOs   :    0
   #pairs with 36 - 40 PNOs   :    0
   #pairs with 41 - 45 PNOs   :    0
   #pairs with 46 - 50 PNOs   :    0

Generation of (ij|ab)[P] integrals            ... on
Generation of (ia|bc)[P],(ja|bc)[P] integrals ... on
Storage of 3 and 4 external integrals         ... on
Generation of ALL (ka|bc)[P] integrals        ... on
Keep RI integrals in memory                   ... off

Ibatch:  1 (of  1)
Starting 2-4 index PNO integral generation ... done

Timings:
Total PNO integral transformation time     ...          0.011 sec
Size of the 3-external file                ...         0 MB
Size of the 4-external file                ...         1 MB
Size of the IKJL file                      ...         0 MB
Size of the all 3-external file            ...         0 MB
Size of the 1-external file                ...         0 MB

Making pair/pair overlap matrices          ... done (    0.001 sec)
Size of the pair overlap file              ... 0 MB
Redoing the guess amplitudes               ... done (    0.000 sec)

-------------------------
FINAL STARTUP INFORMATION
-------------------------

E(0)                                       ...    -75.392800445
E(L-MP2)                                   ...     -0.223822891
E(L-MP2) including corrections             ...     -0.223822891
Initial E(tot)                             ...    -75.616623337
<T|T>                                      ...      0.062413456
Number of pairs included                   ... 10
Total number of pairs                      ... 10

------------------------------------------------
                  RHF COUPLED CLUSTER ITERATIONS
------------------------------------------------

Number of PNO amplitudes to be optimized   ...         3240
Number of non-PNO amplitudes               ...         3240
Untruncated number of regular amplitudes   ...         3240

Iter       E(tot)           E(Corr)          Delta-E          Residual     Time
  0    -75.606571357     -0.213770912      0.010051979      0.020321842    0.01
                           *** Turning on DIIS ***
  1    -75.607567220     -0.214766775     -0.000995863      0.009249529    0.01
  2    -75.613329378     -0.220528932     -0.005762157      0.004660815    0.01
  3    -75.615237059     -0.222436614     -0.001907681      0.002591794    0.01
  4    -75.616068386     -0.223267941     -0.000831327      0.001296890    0.01
  5    -75.616453354     -0.223652909     -0.000384968      0.000528484    0.01
  6    -75.616551968     -0.223751523     -0.000098614      0.000207394    0.01
  7    -75.616570666     -0.223770221     -0.000018698      0.000103280    0.01
  8    -75.616573495     -0.223773050     -0.000002829      0.000052957    0.01
  9    -75.616578398     -0.223777953     -0.000004903      0.000021859    0.01
               --- The Coupled-Cluster iterations have converged ---
Making OccT1 to AO map ... ok
3-index local transformation (OBS,OBS/AUX) for   op=0   ... done (      0.0 sec)
3-index local transformation (OBS,CABS/AUX) for  op=0   ... done (      0.0 sec)
3-index local transformation (OBS,OBS/AUX) for   op=1   ... done (      0.0 sec)
3-index local transformation (OBS,CABS/AUX) for  op=1   ... done (      0.0 sec)
3-index local transformation (OBS,OBS/AUX) for   op=2   ... done (      0.0 sec)
3-index local transformation (OBS,CABS/AUX) for  op=2   ... done (      0.0 sec)
3-index local transformation (OBS,OBS/AUX) for   op=3   ... done (      0.0 sec)
3-index local transformation (OBS,CABS/AUX) for  op=3   ... done (      0.0 sec)
3-index local transformation (OBS,OBS/AUX) for   op=4   ... done (      0.0 sec)
3-index local transformation (OBS,CABS/AUX) for  op=4   ... done (      0.0 sec)
3-index local transformation (OBS,OBS/AUX) of (pa|X)    ... done (      0.0 sec)
3-index local transformation (OBS_T1,OBS/AUX) for op=0  ... done (      0.0 sec)
3-index local transformation (OBS_T1,OBS/AUX) for op=1  ... done (      0.0 sec)
3-index local transformation (OBS_F,OBS/AUX) for op=2   ... done (      0.0 sec)
3-index local transformation (OBS_F,CABS/AUX)for op=2   ... done (      0.0 sec)
------------------------
RHF DLPNO F12 CORRECTION
------------------------

Doing SCF density matrices                              ... done (      0.0 sec)
Calculating RI Coulomb operators
Retrieving the Coulomb fitting basis                    ... done
       .... OBS/OBS done        (      0.0 sec)
       .... CABS/OBS done       (      0.0 sec)
       .... CABS/CABS done      (      0.1 sec)

F12 OBS GRIDX
-------------

General Integration Accuracy     IntAcc      ... 4.338
Radial Grid Type                 RadialGrid  ... OptM3 with GC (2021)
Angular Grid (max. ang.)         AngularGrid ... 3 (Lebedev-194)
Angular grid pruning method      GridPruning ... 5 (extended)
Weight generation scheme         WeightScheme... Becke
Basis function cutoff            BFCut       ... 1.0000e-10
Integration weight cutoff        WCut        ... 1.0000e-14
Angular grids for H and He will be reduced by one unit
Partially contracted basis set               ... on
Rotationally invariant grid construction     ... off

Total number of grid points                  ...    16707
Total number of batches                      ...      262
Average number of points per batch           ...       63
Average number of grid points per atom       ...     8354

F12 CABS GRIDX
--------------

General Integration Accuracy     IntAcc      ... 4.338
Radial Grid Type                 RadialGrid  ... OptM3 with GC (2021)
Angular Grid (max. ang.)         AngularGrid ... 3 (Lebedev-194)
Angular grid pruning method      GridPruning ... 5 (extended)
Weight generation scheme         WeightScheme... Becke
Basis function cutoff            BFCut       ... 1.0000e-10
Integration weight cutoff        WCut        ... 1.0000e-14
Angular grids for H and He will be reduced by one unit
Partially contracted basis set               ... on
Rotationally invariant grid construction     ... off

Total number of grid points                  ...    16707
Total number of batches                      ...      262
Average number of points per batch           ...       63
Average number of grid points per atom       ...     8354

Calculating COSX Exchange operators
       .... OBS/OBS done        (      0.1 sec)
       .... CABS/OBS done       (      0.1 sec)
       .... CABS/CABS done      (      0.3 sec)
Completing Fock operators                               ... done (      0.0 sec)
Calculating F12 intermediates (incore)                  ... 

WARNING (ORCA_TOOLS): CalcCholeskyLLoc() returned with error 1
                      Potentially linear dependencies in the aux basis!



WARNING (ORCA_TOOLS): CalcCholeskyLLoc() returned with error 1
                      Potentially linear dependencies in the aux basis!


Total T*B*T Contribution              =   0.076648429215

Total V*T MP2 Contribution            =  -0.159839135270

Total V*T CCSD without S Contribution =  -0.142364373669

Total V*T CCSD with S Contribution    =  -0.140661932945

DeltaEC_MP2                           =  -0.083190706055

DeltaEC_CCSD without S                =  -0.065715944454

DeltaEC_CCSD with S                   =  -0.064013503730
Total time of computation of intermediates                       (      0.0 sec)
Calculating correlation correction                      ... done (      0.0 sec)

F12 correction                   :  -0.064013503730
HF basis set correction          :  -0.020113515582
Sum of the two                   :  -0.084127019312

Total time for F12 correction    :     0.836 sec
  .... cleaning up and leaving F12-CCSD

----------------------
COUPLED CLUSTER ENERGY
----------------------

Uncorrected 0th order energy               ...    -75.392800445
F12-HF basis set correction                ...     -0.020113516
Corrected 0th order energy                 ...    -75.412913961

E(CORR)(strong-pairs)                      ...     -0.223777953
E(CORR)(weak-pairs)                        ...      0.000000000
E(CORR)(corrected)                         ...     -0.223777953
Uncorrected correlation energy             ...     -0.223777953
F12-correction to the correlation energy   ...     -0.064013504
Final F12 correlation energy               ...     -0.287791456

E(TOT)-before F12 corrections              ...    -75.616578398
E(TOT)-after HF correction                 ...    -75.636691914
E(TOT)-after all F12 corrections           ...    -75.700705417

Singles Norm <S|S>**1/2                    ...      0.069258427  
T1 diagnostic                              ...      0.024486552  

------------------
LARGEST AMPLITUDES
------------------
   4-> 10   4-> 10       0.044799
   3->  7   3->  7       0.037532
   3->  7  -1-> -1       0.036781
   4->  9   4->  9       0.035849
   2->  6  -1-> -1       0.033823
   2->  6   2->  6       0.032683
   1->  6  -1-> -1       0.029883
   4-> 10   4->  9       0.028983
   4->  9   4-> 10       0.028983
   3-> 13   3-> 13       0.028626
   1->  6   1->  6       0.026854
   2-> 12   2-> 12       0.024373
   3->  7   3-> 13       0.023074
   3-> 13   3->  7       0.023074
   3->  7   2->  6       0.022972
   2->  6   1->  6       0.022872


-------------------------------------------
DLPNO BASED TRIPLES CORRECTION
-------------------------------------------

Singles multiplier          ...  1.000000
TCutTNO                     ... 1.000e-09
TCutMP2Pairs                ... 1.000e-06
TCutDOStrong                ... 1.000e-02
TCutMKNStrong               ... 1.000e-02
TCutDOWeak                  ... 2.000e-02
TCutMKNWeak                 ... 1.000e-01

Parameters used in iterative triples
TCutFock                    ... 1.000e-03
TCutWeak                    ... 1.000e-08
TCutWeakGuess               ... 6.000e-06
TCutIter                    ... 1.000e-03
TNOScaleS                   ... 1.000e+01
TNOScaleW                   ... 1.000e+02
ETol                        ... 1.000e-04

Fragment selection                          .... not used
Number of Triples that are to be computed   ...        16

 . . . . . . . . .
10% done  
20% done  
30% done  
40% done  
50% done  
60% done  
70% done  
80% done  
90% done               (      0.012 sec)

-------------------
Triples Iterations:
-------------------

The T1 Strong/Weak pair is = 13/3 

Iter        E(Triple)      Delta-E            Time
  0     0.000000000000    0.005402936183      0.01
  1    -0.005804246725    0.000401310542      0.01
  2    -0.005890867259    0.000086620534      0.01

------------------
TRIPLES CORRECTION
------------------

The Conventional (T0) is    -0.005402936183
The Truncated    (T0) is    -0.005402936183
The corrected     (T) is    -0.005890867259

Triples timings:
Total time for T0               ...     0.016 sec
Total time for Iterative (T)    ...     0.012 sec
Total time of overall (T)       ...     0.030 sec

Triples List generation         ...     0.000 sec
TNO generation                  ...     0.002 sec
Pair density generation         ...     0.000 sec
Look up tables                  ...     0.000 sec
Generating 3-index integrals    ...     0.004 sec
  Make 4-ind.int. from 3-ind.int...     0.003 sec
  Projecting amplitudes (D + S) ...     0.000 sec
  Downprojecting integrals      ...     0.000 sec
  Energy contr. (sum over a,b,c)...     0.004 sec
Fitting ET(->0)                 ...     0.000 sec

Everything after 3-index        ...     0.009 sec

Timing details:
 TNO integrals                  ...     0.006 sec
   Reading 3-index integrals    ...     0.001 sec
   Sorting integrals            ...     0.001 sec
       Sorting integrals 1      ...     0.000 sec
       Sorting integrals 2      ...     0.000 sec
       Sorting integrals 3      ...     0.000 sec
       Sorting integrals 4      ...     0.000 sec
       Sorting integrals 5      ...     0.000 sec
       Sorting integrals 6      ...     0.000 sec
   Calculating local VM**-1/2   ...     0.001 sec
   Orthogonal. integrals        ...     0.001 sec
   Multipl. 3-index integrals   ...     0.002 sec
   All concerning IRIab (w/TNO) ...     0.000 sec

 Calculate W0/W1                ...     0.001 sec
 W 3-ext contribution           ...     0.001 sec
 W 3-int contribution           ...     0.000 sec
 Sorting W                      ...     0.000 sec

 V exchange contribution        ...     0.002 sec

 Timings for Triples without generation
     of 3-index integrals       ...     0.009 sec
       0 weak pairs             ...     0.009 sec
       1 weak pair              ...     0.000 sec
       2 weak pairs             ...     0.000 sec
       3 weak pairs             ...     0.000 sec
  Extra time for extrapolation  ...     0.000 sec

Number of Triples   (0, 1, 2, 3 weak pairs; overall):     16       0       0       0  (    16)
Number of Atoms     (0, 1, 2, 3 weak pairs; overall):    2.0     0.0     0.0     0.0  (     2)
Number of PAOs      (0, 1, 2, 3 weak pairs; overall):   23.0     0.0     0.0     0.0  (    23)
Number of AuxFcns   (0, 1, 2, 3 weak pairs; overall):  140.2     0.0     0.0     0.0  (   149)
Number of TNOs      (0, 1, 2, 3 weak pairs         ):   18.0     0.0     0.0     0.0
Aver. Number of NTNO, Atoms, PAOs, AuxFcns / Triples:     16    18.0     2.0    23.0   140.2

Triples Correction (T)                     ...     -0.005890867
Final correlation energy (without F12)     ...     -0.229668820
Final correlation energy (with F12)        ...     -0.293682324
F12-E(CCSD)                                ...    -75.700705417
F12-E(CCSD(T))                             ...    -75.706596285



------------------------------------------------------------------------------- 
                                     TIMINGS                                   
------------------------------------------------------------------------------- 


Total execution time                   ...        3.191 sec

Localization of occupied MO's          ...        0.439 sec ( 13.8%)
Fock Matrix Formation                  ...        0.074 sec (  2.3%)
Global overlap, Fock, MKN matrices     ...        0.125 sec (  3.9%)
Differential overlap integrals         ...        0.187 sec (  5.9%)
Organizing maps                        ...        0.001 sec (  0.0%)
RI 3-index integral generations        ...        0.292 sec (  9.1%)
RI-PNO integral transformation         ...        0.027 sec (  0.8%)
Initial Guess                          ...        0.024 sec (  0.8%)
DIIS Solver                            ...        0.013 sec (  0.4%)
State Vector Update                    ...        0.000 sec (  0.0%)
Sigma-vector construction              ...        0.083 sec (  2.6%)
  <D|H|D>(0-ext)                       ...        0.003 sec (  3.6% of sigma)
  <D|H|D>(2-ext)                       ...        0.006 sec (  7.4% of sigma)
  <D|H|D>(4-ext)                       ...        0.009 sec ( 11.1% of sigma)
  <D|H|D>(4-ext-corr)                  ...        0.016 sec ( 19.4% of sigma)
  <S|H|S>                              ...        0.004 sec (  5.1% of sigma)
  <S|H|D>(1-ext)                       ...        0.001 sec (  1.7% of sigma)
  <S|H|D>(3-ext)                       ...        0.001 sec (  1.7% of sigma)
  Fock-dressing                        ...        0.011 sec ( 12.8% of sigma)
  Singles amplitudes                   ...        0.002 sec (  2.6% of sigma)
  (ik|jl)-dressing                     ...        0.004 sec (  4.8% of sigma)
  (ij|ab),(ia|jb)-dressing             ...        0.011 sec ( 13.1% of sigma)
Total Time for computing F12           ...        1.205 sec ( 37.8% of ALL)
Total Time for computing (T)           ...        0.031 sec (  1.0% of ALL)


Maximum memory used throughout the entire MDCI-calculation: 95.3 MB

-------------------------   --------------------
FINAL SINGLE POINT ENERGY       -75.706596284582
-------------------------   --------------------


                            ***************************************
                            *     ORCA property calculations      *
                            ***************************************


  WARNING: The energy has been calculated at the MDCI level but the densities
           used in the property calculations are still SCF densities
           MDCI response densities have not been calculated 
           use %mdci Density linearized end
           or  %mdci Density unrelaxed end
           or  %mdci Density orbopt end

                                    ---------------------
                                    Active property flags
                                    ---------------------
   (+) Dipole Moment


------------------------------------------------------------------------------
                       ORCA ELECTRIC PROPERTIES CALCULATION
------------------------------------------------------------------------------

Dipole Moment Calculation                       ... on
Quadrupole Moment Calculation                   ... off
Polarizability Calculation                      ... off
GBWName                                         ... oh-anion_lw1x-jun_Compound_1.gbw
Electron density                                ... oh-anion_lw1x-jun_Compound_1.scfp
The origin for moment calculation is the CENTER OF MASS  = ( 0.000000,  0.000000  0.095156)

-------------
DIPOLE MOMENT
-------------
                                X             Y             Z
Electronic contribution:      0.00000       0.00000       0.22447
Nuclear contribution   :      0.00000       0.00000      -0.85640
                        -----------------------------------------
Total Dipole Moment    :      0.00000       0.00000      -0.63194
                        -----------------------------------------
Magnitude (a.u.)       :      0.63194
Magnitude (Debye)      :      1.60625



--------------------
Rotational spectrum 
--------------------
 
Rotational constants in cm-1:     0.000000    18.842966    18.842966 
Rotational constants in MHz :     0.000000 564897.906809 564897.906809 

 Dipole components along the rotational axes: 
x,y,z [a.u.] :    -0.631936     0.000000     0.000000 
x,y,z [Debye]:    -1.606252     0.000000     0.000000 

 

Timings for individual modules:

Sum of individual times         ...        6.953 sec (=   0.116 min)
GTO integral calculation        ...        1.197 sec (=   0.020 min)  17.2 %
SCF iterations                  ...        1.663 sec (=   0.028 min)  23.9 %
MDCI module                     ...        4.093 sec (=   0.068 min)  58.9 %


################################################################################


                                COMPOUND JOB  2 
Basename: oh-anion_lw1x-jun_Compound_2
NOTE: please remember that MaxCore and PAL settings will be ignored.

################################################################################

================================================================================
                                       INPUT FILE
================================================================================
NAME = oh-anion_lw1x-jun_Compound_2.inp
|  1>     ! DefGrid3 RIJCOSX TightPNO DLPNO-CCSD(T1)-F12 MiniPrint NoPop
|  2>     %Basis
|  3>       Basis "jun-cc-pV(T+d)Z"
|  4>       AuxJ  "AutoAux"
|  5>       AuxC  "AutoAux"
|  6>       CABS  "AutoAux"
|  7>     End
|  8> 
|  9>                          ****END OF INPUT****
================================================================================
Warning! AutoAux has not been tested for CABS - use at your own risk!
================================================================================

----- Orbital basis set information -----
Your calculation utilizes the basis: jun-cc-pV(T+d)Z 
  E. Papajak, D. G. Truhlar, J. Chem. Theory Comput. 7, 10-18 (2011).

----- AuxJ basis set information -----
Your calculation utilizes the AutoAux generation procedure.
  G. L. Stoychev, A. A. Auer, F. Neese, J. Chem. Theory Comput. 13, 554 (2017)

----- AuxC basis set information -----
Your calculation utilizes the AutoAux generation procedure.
  G. L. Stoychev, A. A. Auer, F. Neese, J. Chem. Theory Comput. 13, 554 (2017)

----- CABS information -----
Your calculation utilizes the AutoAux generation procedure.
  G. L. Stoychev, A. A. Auer, F. Neese, J. Chem. Theory Comput. 13, 554 (2017)


                    <<< The CABS basis set will be decontracted >>>

================================================================================
                                        WARNINGS
                       Please study these warnings very carefully!
================================================================================


WARNING: Post HF methods need fully converged wavefunctions
  ===> : Setting SCFConvForced true
         You can overwrite this default with %scf ConvForced false 


WARNING: MDCI localization with Augmented Hessian Foster-Boys
  ===> : Switching off randomization!

INFO   : the flag for use of the SHARK integral package has been found!


                       ****************************
                       * Single Point Calculation *
                       ****************************

---------------------------------
CARTESIAN COORDINATES (ANGSTROEM)
---------------------------------
  O      0.000000    0.000000    0.107924
  H      0.000000    0.000000   -0.863393

----------------------------
CARTESIAN COORDINATES (A.U.)
----------------------------
  NO LB      ZA    FRAG     MASS         X           Y           Z
   0 O     8.0000    0    15.999    0.000000    0.000000    0.203947
   1 H     1.0000    0     1.008    0.000000    0.000000   -1.631576



           ************************************************************
           *        Program running with 5 parallel MPI-processes     *
           *              working on a common directory               *
           ************************************************************
------------------------------------------------------------------------------
                   ___                                                        
                  /   \      - P O W E R E D   B Y -                         
                 /     \                                                     
                 |  |  |   _    _      __       _____    __    __             
                 |  |  |  | |  | |    /  \     |  _  \  |  |  /  |          
                  \  \/   | |  | |   /    \    | | | |  |  | /  /          
                 / \  \   | |__| |  /  /\  \   | |_| |  |  |/  /          
                |  |  |   |  __  | /  /__\  \  |    /   |      \           
                |  |  |   | |  | | |   __   |  |    \   |  |\   \          
                \     /   | |  | | |  |  |  |  | |\  \  |  | \   \       
                 \___/    |_|  |_| |__|  |__|  |_| \__\ |__|  \__/        
                                                                              
                      - O R C A' S   B I G   F R I E N D -                    
                                      &                                       
                       - I N T E G R A L  F E E D E R -                       
                                                                              
 v1 FN, 2020, v2 2021                                                         
------------------------------------------------------------------------------


Reading SHARK input file oh-anion_lw1x-jun_Compound_2.SHARKINP.tmp ... ok
----------------------
SHARK INTEGRAL PACKAGE
----------------------

Number of atoms                             ...      2
Number of basis functions                   ...     53
Number of shells                            ...     19
Maximum angular momentum                    ...      3
Integral batch strategy                     ... SHARK/LIBINT Hybrid
RI-J (if used) integral strategy            ... SPLIT-RIJ (Revised 2003 algorithm where possible)
Printlevel                                  ...      1
Contraction scheme used                     ... SEGMENTED contraction
Coulomb Range Separation                    ... NOT USED
Exchange Range Separation                   ... NOT USED
Finite Nucleus Model                        ... NOT USED
Auxiliary Coulomb fitting basis             ... AVAILABLE
   # of basis functions in Aux-J            ...    269
   # of shells in Aux-J                     ...     75
   Maximum angular momentum in Aux-J        ...      4
Auxiliary J/K fitting basis                 ... NOT available
Auxiliary Correlation fitting basis         ... AVAILABLE
   # of basis functions in Aux-C            ...    269
   # of shells in Aux-C                     ...     75
   Maximum angular momentum in Aux-C        ...      4
Auxiliary 'external' fitting basis          ... NOT available
Integral threshold                          ...     1.000000e-10
Primitive cut-off                           ...     1.000000e-11
Primitive pair pre-selection threshold      ...     1.000000e-11

Calculating pre-screening integrals         ... done (  0.0 sec) Dimension = 19
Organizing shell pair data                  ... done (  0.0 sec)
Shell pair information
Total number of shell pairs                 ...       190
Shell pairs after pre-screening             ...       190
Total number of primitive shell pairs       ...       765
Primitive shell pairs kept                  ...       752
          la=0 lb=0:     36 shell pairs
          la=1 lb=0:     48 shell pairs
          la=1 lb=1:     21 shell pairs
          la=2 lb=0:     32 shell pairs
          la=2 lb=1:     24 shell pairs
          la=2 lb=2:     10 shell pairs
          la=3 lb=0:      8 shell pairs
          la=3 lb=1:      6 shell pairs
          la=3 lb=2:      4 shell pairs
          la=3 lb=3:      1 shell pairs

Calculating one electron integrals          ... done (  0.0 sec)
Calculating RI/J V-Matrix + Cholesky decomp.... done (  0.0 sec)
Calculating RI/C V-Matrix + Cholesky decomp.... done (  0.0 sec)
Calculating Nuclear repulsion               ... done (  0.0 sec) ENN=      4.358430529271 Eh

SHARK setup successfully completed in   0.1 seconds

Maximum memory used throughout the entire GTOINT-calculation: 17.3 MB


           ************************************************************
           *        Program running with 5 parallel MPI-processes     *
           *              working on a common directory               *
           ************************************************************

Diagonalization of the overlap matrix:
Smallest eigenvalue                        ... 1.210e-03
Time for diagonalization                   ...    0.001 sec
Threshold for overlap eigenvalues          ... 1.000e-08
Number of eigenvalues below threshold      ... 0
Time for construction of square roots      ...    0.000 sec
Total time needed                          ...    0.002 sec

Atom 0: N(Shells)= 13 and 8 - projection required
--------------------
COSX GRID GENERATION
--------------------

GRIDX 1
-------
General Integration Accuracy     IntAcc      ... 4.020
Radial Grid Type                 RadialGrid  ... OptM3 with GC (2021)
Angular Grid (max. ang.)         AngularGrid ... 2 (Lebedev-110)
Angular grid pruning method      GridPruning ... 4 (adaptive)
Weight generation scheme         WeightScheme... Becke
Basis function cutoff            BFCut       ... 1.0000e-10
Integration weight cutoff        WCut        ... 1.0000e-14
Angular grids for H and He will be reduced by one unit
Partially contracted basis set               ... on
Rotationally invariant grid construction     ... off

Total number of grid points                  ...     3113
Total number of batches                      ...       50
Average number of points per batch           ...       62
Average number of grid points per atom       ...     1556
UseSFitting                                  ... on

GRIDX 2
-------
General Integration Accuracy     IntAcc      ... 4.338
Radial Grid Type                 RadialGrid  ... OptM3 with GC (2021)
Angular Grid (max. ang.)         AngularGrid ... 3 (Lebedev-194)
Angular grid pruning method      GridPruning ... 4 (adaptive)
Weight generation scheme         WeightScheme... Becke
Basis function cutoff            BFCut       ... 1.0000e-10
Integration weight cutoff        WCut        ... 1.0000e-14
Angular grids for H and He will be reduced by one unit
Partially contracted basis set               ... on
Rotationally invariant grid construction     ... off

Total number of grid points                  ...     6758
Total number of batches                      ...      107
Average number of points per batch           ...       63
Average number of grid points per atom       ...     3379
UseSFitting                                  ... on

GRIDX 3
-------
General Integration Accuracy     IntAcc      ... 4.871
Radial Grid Type                 RadialGrid  ... OptM3 with GC (2021)
Angular Grid (max. ang.)         AngularGrid ... 4 (Lebedev-302)
Angular grid pruning method      GridPruning ... 4 (adaptive)
Weight generation scheme         WeightScheme... Becke
Basis function cutoff            BFCut       ... 1.0000e-10
Integration weight cutoff        WCut        ... 1.0000e-14
Angular grids for H and He will be reduced by one unit
Partially contracted basis set               ... on
Rotationally invariant grid construction     ... off

Total number of grid points                  ...    12840
Total number of batches                      ...      202
Average number of points per batch           ...       63
Average number of grid points per atom       ...     6420
UseSFitting                                  ... on

Time for X-Grid setup             =    0.094 sec

 re-compute Schwartz prescreening matrix in partically contracted basis (1) ...done (   0.067 sec)
--------------
SCF ITERATIONS
--------------
ITER       Energy         Delta-E        Max-DP      RMS-DP      [F,P]     Damp
               ***  Starting incremental Fock matrix formation  ***
  0    -75.4068201159   0.000000000000 0.01941585  0.00067586  0.0510141 0.7000
                      *** Initiating the SOSCF procedure ***
                      *** Re-Reading the Fockian *** 
                      *** Removing any level shift *** 
ITER      Energy       Delta-E        Grad      Rot      Max-DP    RMS-DP
  1    -75.40808245  -0.0012623325  0.001241  0.001241  0.048147  0.001728
               *** Restarting incremental Fock matrix formation ***
  2    -75.41143871  -0.0033562601  0.003373  0.002642  0.008204  0.000347
  3    -75.41153009  -0.0000913813  0.001048  0.001351  0.003508  0.000130
  4    -75.41153886  -0.0000087653  0.000580  0.000456  0.000592  0.000034
  5    -75.41154118  -0.0000023205  0.000130  0.000127  0.000383  0.000020
                 **** Energy Check signals convergence ****
              ***Rediagonalizing the Fockian in SOSCF/NRSCF***

               *****************************************************
               *                     SUCCESS                       *
               *           SCF CONVERGED AFTER   6 CYCLES          *
               *****************************************************

Old exchange energy                            =     -8.735363987 Eh
New exchange energy                            =     -8.735372437 Eh
Exchange energy change after final integration =     -0.000008449 Eh
Total energy after final integration           =    -75.411549780 Eh
Final COS-X integration done in                =     0.090 sec
Total Energy       :          -75.41154978 Eh           -2052.05259 eV
  Last Energy change         ...   -1.5458e-07  Tolerance :   1.0000e-06
  Last MAX-Density change    ...    2.2204e-16  Tolerance :   1.0000e-05
             **** THE GBW FILE WAS UPDATED (oh-anion_lw1x-jun_Compound_2.gbw) ****
             **** DENSITY oh-anion_lw1x-jun_Compound_2.scfp WAS UPDATED ****
             **** ENERGY FILE WAS UPDATED (oh-anion_lw1x-jun_Compound_2.en.tmp) ****
             **** THE GBW FILE WAS UPDATED (oh-anion_lw1x-jun_Compound_2.gbw) ****
             **** DENSITY oh-anion_lw1x-jun_Compound_2.scfp WAS UPDATED ****
----------------
[...]

Total number of grid points                  ...     6002
Total number of batches                      ...       95
Average number of points per batch           ...       63
Average number of grid points per atom       ...     3001
UseSFitting                                  ... on

GRIDX 3
-------
General Integration Accuracy     IntAcc      ... 4.871
Radial Grid Type                 RadialGrid  ... OptM3 with GC (2021)
Angular Grid (max. ang.)         AngularGrid ... 4 (Lebedev-302)
Angular grid pruning method      GridPruning ... 4 (adaptive)
Weight generation scheme         WeightScheme... Becke
Basis function cutoff            BFCut       ... 1.0000e-10
Integration weight cutoff        WCut        ... 1.0000e-14
Angular grids for H and He will be reduced by one unit
Partially contracted basis set               ... on
Rotationally invariant grid construction     ... off

Total number of grid points                  ...    11656
Total number of batches                      ...      183
Average number of points per batch           ...       63
Average number of grid points per atom       ...     5828
UseSFitting                                  ... on

Time for X-Grid setup             =    0.077 sec

 re-compute Schwartz prescreening matrix in partically contracted basis (1) ...done (   0.066 sec)
--------------
SCF ITERATIONS
--------------
ITER       Energy         Delta-E        Max-DP      RMS-DP      [F,P]     Damp
               ***  Starting incremental Fock matrix formation  ***
  0    -75.4311052642   0.000000000000 0.01157843  0.00022219  0.0751811 0.7000
                      *** Initiating the SOSCF procedure ***
                      *** Re-Reading the Fockian *** 
                      *** Removing any level shift *** 
ITER      Energy       Delta-E        Grad      Rot      Max-DP    RMS-DP
  1    -75.43131987  -0.0002146031  0.001318  0.001318  0.027277  0.000524
               *** Restarting incremental Fock matrix formation ***
  2    -75.43182554  -0.0005056773  0.002206  0.000361  0.000675  0.000027
  3    -75.43182621  -0.0000006701  0.000281  0.000130  0.000243  0.000010
                 **** Energy Check signals convergence ****
              ***Rediagonalizing the Fockian in SOSCF/NRSCF***

               *****************************************************
               *                     SUCCESS                       *
               *           SCF CONVERGED AFTER   4 CYCLES          *
               *****************************************************

Old exchange energy                            =     -8.837436350 Eh
New exchange energy                            =     -8.837444819 Eh
Exchange energy change after final integration =     -0.000008468 Eh
Total energy after final integration           =    -75.431835038 Eh
Final COS-X integration done in                =     0.086 sec
Total Energy       :          -75.43183504 Eh           -2052.60458 eV
  Last Energy change         ...   -3.5509e-07  Tolerance :   1.0000e-06
  Last MAX-Density change    ...    4.4409e-16  Tolerance :   1.0000e-05
             **** THE GBW FILE WAS UPDATED (oh-anion_lw1x-jun_Compound_4.gbw) ****
             **** DENSITY oh-anion_lw1x-jun_Compound_4.scfp WAS UPDATED ****
             **** ENERGY FILE WAS UPDATED (oh-anion_lw1x-jun_Compound_4.en.tmp) ****
             **** THE GBW FILE WAS UPDATED (oh-anion_lw1x-jun_Compound_4.gbw) ****
             **** DENSITY oh-anion_lw1x-jun_Compound_4.scfp WAS UPDATED ****
----------------
ORBITAL ENERGIES
----------------

  NO   OCC          E(Eh)            E(eV) 
   0   2.0000     -20.121866      -547.5438 
   1   2.0000      -0.848282       -23.0829 
   2   2.0000      -0.197365        -5.3706 
   3   2.0000      -0.064517        -1.7556 
   4   2.0000      -0.064517        -1.7556 
   5   0.0000       0.422410        11.4944 
   6   0.0000       0.907357        24.6904 
   7   0.0000       1.037323        28.2270 
   8   0.0000       1.153966        31.4010 
   9   0.0000       1.153966        31.4010 
  10   0.0000       1.235285        33.6138 
  11   0.0000       1.235285        33.6138 
  12   0.0000       1.351424        36.7741 
  13   0.0000       1.842785        50.1447 
  14   0.0000       2.146016        58.3961 
  15   0.0000       2.146030        58.3964 
  16   0.0000       2.456734        66.8511 
  17   0.0000       2.456734        66.8511 
  18   0.0000       2.473419        67.3052 
  19   0.0000       3.160704        86.0071 
  20   0.0000       3.894889       105.9853 
  21   0.0000       3.894891       105.9854 
  22   0.0000       4.119381       112.0941 
  23   0.0000       4.119381       112.0941 
  24   0.0000       4.351684       118.4153 
  25   0.0000       4.351684       118.4153 
  26   0.0000       4.352809       118.4460 
  27   0.0000       4.783575       130.1677 
  28   0.0000       4.783575       130.1677 
  29   0.0000       4.900962       133.3619 
  30   0.0000       5.340694       145.3277 
  31   0.0000       5.763940       156.8448 
  32   0.0000       6.036394       164.2586 
  33   0.0000       6.036394       164.2586 
  34   0.0000       6.279181       170.8652 
  35   0.0000       6.279209       170.8660 
  36   0.0000       7.202421       195.9878 
  37   0.0000       7.202467       195.9891 
  38   0.0000       7.310161       198.9196 
  39   0.0000       7.310161       198.9196 
  40   0.0000       7.503532       204.1815 
  41   0.0000       7.503532       204.1815 
  42   0.0000       7.913265       215.3309 
  43   0.0000       8.557440       232.8598 
  44   0.0000      19.350950       526.5661 
  45   0.0000      19.350950       526.5661 
  46   0.0000      19.931918       542.3751 
  47   0.0000      22.542279       613.4066 
  48   0.0000      30.427197       827.9661 
  49   0.0000      30.427197       827.9661 
  50   0.0000      30.498075       829.8948 
  51   0.0000      30.498075       829.8948 
  52   0.0000      30.868809       839.9830 
  53   0.0000      90.301087      2457.2175 
  54   0.0000      90.301087      2457.2175 
  55   0.0000      90.764085      2469.8163 
  56   0.0000     106.119099      2887.6475 
Total SCF time: 0 days 0 hours 0 min 0 sec 

Maximum memory used throughout the entire SCF-calculation: 58.0 MB


           ************************************************************
           *        Program running with 5 parallel MPI-processes     *
           *              working on a common directory               *
           ************************************************************

------------------------------------------------------------------------------
                                ORCA  MP2 
------------------------------------------------------------------------------

Freezing NCore=0 chemical core electrons
Initializing SHARK ... done


------------------------------------------------------------------------------
                           ORCA ORBITAL LOCALIZATION
------------------------------------------------------------------------------

Input orbitals are from                  ... oh-anion_lw1x-jun_Compound_4.gbw
Output orbitals are to                   ... oh-anion_lw1x-jun_Compound_4.loc
Max. number of iterations                ... 128
Localizations seeded randomly            ... off
Convergence tolerance                    ... 1.000e-06
Treshold for strong local MOs            ... 9.500e-01
Treshold for bond MOs                    ... 8.500e-01
Operator                                 ... 0
Orbital range for localization           ... 0 to 4
Localization criterion                   ... FOSTER-BOYS (AUGMENTED HESSIAN)
Doing the dipole integrals     ... o.k.
Initial value of the localization sum :     0.393028
ITERATION   0 : L=    1.9720172533 DL=  1.58e+00 (AVERGE_DL)=    0.3973650293 
ITERATION   1 : L=    2.2404784773 DL=  2.68e-01 (AVERGE_DL)=    0.1638478636 
ITERATION   2 : L=    2.2452626251 DL=  4.78e-03 (AVERGE_DL)=    0.0218726948 
ITERATION   3 : L=    2.2456661150 DL=  4.03e-04 (AVERGE_DL)=    0.0063520856 
ITERATION   4 : L=    2.2456715947 DL=  5.48e-06 (AVERGE_DL)=    0.0007402507 
ITERATION   5 : L=    2.2456717662 DL=  1.72e-07 (AVERGE_DL)=    0.0001309610 
LOCALIZATION SUM CONVERGED

------------------------------------------------------
AUGMENTED HESSIAN OPTIMIZATION OF FOSTER-BOYS ORBITALS
------------------------------------------------------

Spin operator:           0
Orbital window:          0 to 4
Number of iterations:    128
Gradient tolerance:      1.000e-06
Number of pairs:         10
Davidson threshold:      2000
Diagonalization method:  LAPACK
Iter:    0   L: 2.2456717662   Grad. norm: 2.020604e-04
   *** Detected a saddle point. ***
       Augmented Hessian eigenvalues:  3.07e-08  1.02e-08 -1.03e+00 -1.03e+00 ... 
Iter:    1   L: 2.2456717789   Grad. norm: 6.943276e-05
Iter:    2   L: 2.2456717804   Grad. norm: 9.857704e-10
   *** Likely close to a maximum now. ***
       Augmented Hessian eigenvalues:  6.89e-13 -3.50e-08 -1.03e+00 -1.03e+00 ... 
Iter:    3   L: 2.2456717804   Grad. norm: 2.993998e-13
LOCALIZATION HAS CONVERGED.

Eigenvalues of the Hessian:
  0 -3.497e-08
  1 -1.025e+00
  2 -1.025e+00
  3 -2.030e+00
  4 -2.568e+00
  5 -2.568e+00
  6 -5.267e+00
  7 -5.659e+00
  8 -5.659e+00
  9 -8.969e+00


------------------------------------------------------------------------------- 
                    LOCALIZED MOLECULAR ORBITAL COMPOSITIONS                   
------------------------------------------------------------------------------- 

The Mulliken populations for each LMO on each atom are computed
The LMO`s will be ordered according to atom index and type
  (A) Strongly localized MO`s have populations of >=0.950 on one atom
  (B) Two center bond orbitals have populations of >=0.850 on two atoms
  (C) Other MO`s are considered to be `delocalized`

FOUND  -   4 strongly local MO`s
       -   1 two center bond MO`s
       -   0 significantly delocalized MO`s

Rather strongly localized orbitals:
MO   3:   0O  -   1.000224
MO   2:   0O  -   0.993928
MO   1:   0O  -   0.993928
MO   0:   0O  -   0.993928
Bond-like localized orbitals:
MO   4:   1H  -   0.421967  and   0O  -   0.578033
Localized MO's were stored in: oh-anion_lw1x-jun_Compound_4.loc



Calculating differential overlap integrals ... ok
Threshold for domain construction in prescreening: TCutDOPre = 3.0e-02

--------------------------
ELECTRON PAIR PRESCREENING
--------------------------

Dipole-based pair screening          .... used

   TCutDOij = 1.000000e-05
   TCutPre  = 1.000000e-06
   .... Finished loop over pairs
Total time spent in the prescreening                  ...     0.003 sec
sum of pair energies estimated for screened out pairs ...       0.000000000000 Eh

---------------------------
MAP CONSTRUCTION THRESHOLDS
---------------------------
    TCutMKN     ...     1.0e-03
    TCutDO      ...     5.0e-03
    TCutC(MO)   ...     1.0e-03
    TCutC(PAO)  ...     1.0e-03

--------------------------------
LOCAL RI TRANSFORMATION (IAVPAO)
--------------------------------

Orbital window:       0 to 4
Number of PAOs:      57
Basis functions:     57 (21 shells)
Aux. functions:     277 (75 shells)
Use SHARK:           on

Processing maps (0.0 sec)
Average map sizes:
   Aux shells -> MOs               5.0
   Aux shells -> PAOs             57.0
   MOs        -> AO shells        21.0
   PAOs       -> AO shells        21.0

Calculating integrals (0.0 sec, 0.605 MB)
Sorting integrals (0.0 sec, 0.602 MB)
Total time for the integral transformation: 0.0 sec

----------------------------
Local MP2 Energy Calculation
----------------------------
Number of orbital pairs included:     15
Truncation parameters:
    PAOOverlapThresh    =        1.000e-08
    TCutPNO             =        1.000e-09

Spin component scaling                      .... not used
MP2 energy scaling factor                   .... 1.000

Formation of semicanonical amplitudes.
 10% done.
 20% done.
 30% done.
 40% done.
 50% done.
 60% done.
 70% done.
 80% done.
 90% done.
100% done.

Finished the LMP2 guess in 0.0 sec.

Average number of PAOs per pair         57.0
Average number of nrPAOs per pair       52.0
Average number of PNOs per pair         46.2
Average number of AUX  per pair        273.5

Semicanonical MP2 energy:                   -0.310188236677 Eh
Semicanonical MP2 energy in PNO basis:      -0.310187324784 Eh

Initial amplitudes guess done. Entering DLPNO-MP2 iteration loop:
   Max. no of iterations          ...  100
   Energy convergence tolerance   ...    1.0e-06 Eh
   Residual convergence tolerance ...    5.0e-06
   Fock matrix cutoff             ...    1.0e-05 Eh
   Max # vectors in DIIS          ...  7
   Start iteration of DIIS        ...  0
   Levelshift                     ...  2.000e-01 Eh
   Damping before turning on DIIS ...  5.000e-01
   Damping after turning on DIIS  ...  0.000e+00

                           *** Turning on DIIS ***
Iter=   0:  ECORR= -0.315935198124  DE=   5.7e-03 RMAX=   3.1e-02
Iter=   1:  ECORR= -0.320914874955  DE=   5.0e-03 RMAX=   1.6e-02
Iter=   2:  ECORR= -0.321617989967  DE=   7.0e-04 RMAX=   3.7e-03
Iter=   3:  ECORR= -0.321825434335  DE=   2.1e-04 RMAX=   1.1e-03
Iter=   4:  ECORR= -0.321852171016  DE=   2.7e-05 RMAX=   1.3e-04
Iter=   5:  ECORR= -0.321853746468  DE=   1.6e-06 RMAX=   4.8e-05
Iter=   6:  ECORR= -0.321853274390  DE=   4.7e-07 RMAX=   5.4e-06
Iter=   7:  ECORR= -0.321853242348  DE=   3.2e-08 RMAX=   3.6e-06 => CONVERGED

Finished the DLPNO-MP2 iterations in 0.0 sec.

LMP2 correlation energy (all non-screened pairs)      ...     -0.321853242348 Eh
Semicanonical PNO correction to energy                ...     -0.000000911893 Eh
Sum of pair energies estimated for screened out pairs ...      0.000000000000 Eh
                                                         -----------------------
Total:                                                ...     -0.321854154241 Eh

------------------------------------------------------
 DLPNO-MP2 CORRELATION ENERGY:      -0.321854154241 Eh
------------------------------------------------------

TIMINGS FOR DLPNO-MP2:
Localization                             ...        0.106 sec
Differential overlap integrals           ...        0.181 sec
Prescreening                             ...        0.092 sec
Map setup                                ...        0.000 sec
(ia|v) trafo                             ...        0.010 sec
Semicanonical amplitudes                 ...        0.013 sec
PNO construction                         ...        0.003 sec
DLPNO-MP2 iterations                     ...        0.035 sec
                                             ----------------
Total time                                          0.810 sec


---------------------------------------
MP2 TOTAL ENERGY:      -75.753689192 Eh
---------------------------------------

Maximum memory used throughout the entire MP2-calculation: 105.5 MB

-------------------------   --------------------
FINAL SINGLE POINT ENERGY       -75.753689192288
-------------------------   --------------------


                            ***************************************
                            *     ORCA property calculations      *
                            ***************************************


  WARNING: The energy has been calculated at the MP2 level but the densities
           used in the property calculations are still SCF densities
           MP2 response densities have not been calculated 
           use %mp2 Density relaxed end
           or  %mp2 Density unrelaxed end

                                    ---------------------
                                    Active property flags
                                    ---------------------
   (+) Dipole Moment


------------------------------------------------------------------------------
                       ORCA ELECTRIC PROPERTIES CALCULATION
------------------------------------------------------------------------------

Dipole Moment Calculation                       ... on
Quadrupole Moment Calculation                   ... off
Polarizability Calculation                      ... off
GBWName                                         ... oh-anion_lw1x-jun_Compound_4.gbw
Electron density                                ... oh-anion_lw1x-jun_Compound_4.scfp
The origin for moment calculation is the CENTER OF MASS  = ( 0.000000,  0.000000  0.095156)

-------------
DIPOLE MOMENT
-------------
                                X             Y             Z
Electronic contribution:      0.00000      -0.00000       0.38545
Nuclear contribution   :      0.00000       0.00000      -0.85640
                        -----------------------------------------
Total Dipole Moment    :      0.00000      -0.00000      -0.47095
                        -----------------------------------------
Magnitude (a.u.)       :      0.47095
Magnitude (Debye)      :      1.19707



--------------------
Rotational spectrum 
--------------------
 
Rotational constants in cm-1:     0.000000    18.842966    18.842966 
Rotational constants in MHz :     0.000000 564897.906809 564897.906809 

 Dipole components along the rotational axes: 
x,y,z [a.u.] :    -0.470954    -0.000000     0.000000 
x,y,z [Debye]:    -1.197070    -0.000000     0.000000 

 

Timings for individual modules:

Sum of individual times         ...        5.329 sec (=   0.089 min)
GTO integral calculation        ...        0.909 sec (=   0.015 min)  17.0 %
Relativistic integrals          ...        0.979 sec (=   0.016 min)  18.4 %
SCF iterations                  ...        1.716 sec (=   0.029 min)  32.2 %
MP2 module                      ...        1.725 sec (=   0.029 min)  32.4 %
================================================================================

----- Orbital basis set information -----
Your calculation utilizes the basis: def2-SVP
   F. Weigend and R. Ahlrichs, Phys. Chem. Chem. Phys. 7, 3297 (2005).



----------------------------------------------------------------------------------------------
                                        COMPOUND BLOCK                                        
                                     SUMMARY OF VARIABLES                                     
----------------------------------------------------------------------------------------------

Variable Name                                           Value             Evaluation String
-------------                                           -----             -----------------
HF_DZ                                    |             -75.41291396    |  
EC_DZ                                    |              -0.29368232    |  
CC_DZ                                    |              -0.28779146    |  EC_DZ-T_DZ
T_DZ                                     |              -0.00589087    |  
HF_TZ                                    |             -75.41618509    |  
EC_TZ                                    |              -0.31457760    |  
CC_TZ                                    |              -0.30273244    |  EC_TZ-T_TZ
T_TZ                                     |              -0.01184516    |  
HF_CBS                                   |             -75.41668119    |  HF_TZ-(HF_TZ-HF_DZ)*3^-5/(3^-5-2^-5)
CC_CBS                                   |              -0.30529286    |  CC_TZ-(CC_TZ-CC_DZ)*3^-4.7405/(3^-4.7405-2^-4.7405)
T_CBS                                    |              -0.01631658    |  T_TZ-(T_TZ-T_DZ)*3^-2.0879/(3^-2.0879-2^-2.0879)
MP_FC                                    |             -75.65342028    |  
MP_FU                                    |             -75.75368919    |  
MP_CV                                    |              -0.10026891    |  MP_FU-MP_FC
LW1X                                     |             -75.83855954    |  HF_CBS+CC_CBS+T_CBS+MP_CV
                             ****ORCA TERMINATED NORMALLY****
TOTAL RUN TIME: 0 days 0 hours 0 minutes 35 seconds 18 msec
