
                                 *****************
                                 * O   R   C   A *
                                 *****************

                                            #,                                       
                                            ###                                      
                                            ####                                     
                                            #####                                    
                                            ######                                   
                                           ########,                                 
                                     ,,################,,,,,                         
                               ,,#################################,,                 
                          ,,##########################################,,             
                       ,#########################################, ''#####,          
                    ,#############################################,,   '####,        
                  ,##################################################,,,,####,       
                ,###########''''           ''''###############################       
              ,#####''   ,,,,##########,,,,          '''####'''          '####       
            ,##' ,,,,###########################,,,                        '##       
           ' ,,###''''                  '''############,,,                           
         ,,##''                                '''############,,,,        ,,,,,,###''
      ,#''                                            '''#######################'''  
     '                                                          ''''####''''         
             ,#######,   #######,   ,#######,      ##                                
            ,#'     '#,  ##    ##  ,#'     '#,    #''#        ######   ,####,        
            ##       ##  ##   ,#'  ##            #'  '#       #        #'  '#        
            ##       ##  #######   ##           ,######,      #####,   #    #        
            '#,     ,#'  ##    ##  '#,     ,#' ,#      #,         ##   #,  ,#        
             '#######'   ##     ##  '#######'  #'      '#     #####' # '####'        



                  #######################################################
                  #                        -***-                        #
                  #          Department of theory and spectroscopy      #
                  #    Directorship and core code : Frank Neese         #
                  #        Max Planck Institute fuer Kohlenforschung    #
                  #                Kaiser Wilhelm Platz 1               #
                  #                 D-45470 Muelheim/Ruhr               #
                  #                      Germany                        #
                  #                                                     #
                  #                  All rights reserved                #
                  #                        -***-                        #
                  #######################################################


                         Program Version 5.0.1 -  RELEASE  -


 With contributions from (in alphabetic order):
   Daniel Aravena         : Magnetic Suceptibility
   Michael Atanasov       : Ab Initio Ligand Field Theory (pilot matlab implementation)
   Alexander A. Auer      : GIAO ZORA, VPT2 properties, NMR spectrum
   Ute Becker             : Parallelization
   Giovanni Bistoni       : ED, misc. LED, open-shell LED, HFLD
   Martin Brehm           : Molecular dynamics
   Dmytro Bykov           : SCF Hessian
   Vijay G. Chilkuri      : MRCI spin determinant printing, contributions to CSF-ICE
   Dipayan Datta          : RHF DLPNO-CCSD density
   Achintya Kumar Dutta   : EOM-CC, STEOM-CC
   Dmitry Ganyushin       : Spin-Orbit,Spin-Spin,Magnetic field MRCI
   Miquel Garcia          : C-PCM and meta-GGA Hessian, CC/C-PCM, Gaussian charge scheme
   Yang Guo               : DLPNO-NEVPT2, F12-NEVPT2, CIM, IAO-localization
   Andreas Hansen         : Spin unrestricted coupled pair/coupled cluster methods
   Benjamin Helmich-Paris : MC-RPA, TRAH-SCF, COSX integrals
   Lee Huntington         : MR-EOM, pCC
   Robert Izsak           : Overlap fitted RIJCOSX, COSX-SCS-MP3, EOM
   Marcus Kettner         : VPT2
   Christian Kollmar      : KDIIS, OOCD, Brueckner-CCSD(T), CCSD density, CASPT2, CASPT2-K
   Simone Kossmann        : Meta GGA functionals, TD-DFT gradient, OOMP2, MP2 Hessian
   Martin Krupicka        : Initial AUTO-CI
   Lucas Lang             : DCDCAS
   Marvin Lechner         : AUTO-CI (C++ implementation), FIC-MRCC
   Dagmar Lenk            : GEPOL surface, SMD
   Dimitrios Liakos       : Extrapolation schemes; Compound Job, initial MDCI parallelization
   Dimitrios Manganas     : Further ROCIS development; embedding schemes
   Dimitrios Pantazis     : SARC Basis sets
   Anastasios Papadopoulos: AUTO-CI, single reference methods and gradients
   Taras Petrenko         : DFT Hessian,TD-DFT gradient, ASA, ECA, R-Raman, ABS, FL, XAS/XES, NRVS
   Peter Pinski           : DLPNO-MP2, DLPNO-MP2 Gradient
   Christoph Reimann      : Effective Core Potentials
   Marius Retegan         : Local ZFS, SOC
   Christoph Riplinger    : Optimizer, TS searches, QM/MM, DLPNO-CCSD(T), (RO)-DLPNO pert. Triples
   Tobias Risthaus        : Range-separated hybrids, TD-DFT gradient, RPA, STAB
   Michael Roemelt        : Original ROCIS implementation
   Masaaki Saitow         : Open-shell DLPNO-CCSD energy and density
   Barbara Sandhoefer     : DKH picture change effects
   Avijit Sen             : IP-ROCIS
   Kantharuban Sivalingam : CASSCF convergence, NEVPT2, FIC-MRCI
   Bernardo de Souza      : ESD, SOC TD-DFT
   Georgi Stoychev        : AutoAux, RI-MP2 NMR, DLPNO-MP2 response
   Willem Van den Heuvel  : Paramagnetic NMR
   Boris Wezisla          : Elementary symmetry handling
   Frank Wennmohs         : Technical directorship


 We gratefully acknowledge several colleagues who have allowed us to
 interface, adapt or use parts of their codes:
   Stefan Grimme, W. Hujo, H. Kruse, P. Pracht,  : VdW corrections, initial TS optimization,
                  C. Bannwarth, S. Ehlert          DFT functionals, gCP, sTDA/sTD-DF
   Ed Valeev, F. Pavosevic, A. Kumar             : LibInt (2-el integral package), F12 methods
   Garnet Chan, S. Sharma, J. Yang, R. Olivares  : DMRG
   Ulf Ekstrom                                   : XCFun DFT Library
   Mihaly Kallay                                 : mrcc  (arbitrary order and MRCC methods)
   Jiri Pittner, Ondrej Demel                    : Mk-CCSD
   Frank Weinhold                                : gennbo (NPA and NBO analysis)
   Christopher J. Cramer and Donald G. Truhlar   : smd solvation model
   Lars Goerigk                                  : TD-DFT with DH, B97 family of functionals
   V. Asgeirsson, H. Jonsson                     : NEB implementation
   FAccTs GmbH                                   : IRC, NEB, NEB-TS, DLPNO-Multilevel, CI-OPT
                                                   MM, QMMM, 2- and 3-layer-ONIOM, Crystal-QMMM,
                                                   LR-CPCM, SF, NACMEs, symmetry and pop. for TD-DFT,
                                                   nearIR, NL-DFT gradient (VV10), updates on ESD,
                                                   ML-optimized integration grids
   S Lehtola, MJT Oliveira, MAL Marques          : LibXC Library
   Liviu Ungur et al                             : ANISO software


 Your calculation uses the libint2 library for the computation of 2-el integrals
 For citations please refer to: http://libint.valeyev.net

 Your ORCA version has been built with support for libXC version: 5.1.0
 For citations please refer to: https://tddft.org/programs/libxc/

 This ORCA versions uses:
   CBLAS   interface :  Fast vector & matrix operations
   LAPACKE interface :  Fast linear algebra routines
   SCALAPACK package :  Parallel linear algebra routines
   Shared memory     :  Shared parallel matrices
   BLAS/LAPACK       :  OpenBLAS 0.3.15  USE64BITINT DYNAMIC_ARCH NO_AFFINITY SkylakeX SINGLE_THREADED
        Core in use  :  SkylakeX
   Copyright (c) 2011-2014, The OpenBLAS Project




################################################################################


                                COMPOUND JOB MainJOB 
Basename: benzene_lw1x_Compound_0

################################################################################

================================================================================
                                       INPUT FILE
================================================================================
NAME = benzene_lw1x_Compound_0.inp
|  1> %Maxcore 2000
|  2>  %Pal nprocs 30 End
|  3>  
|  4>  * xyz 0 1
|  5>  C       -0.000000    1.391243    0.000000 
|  6>  C       -1.204852    0.695622    0.000000 
|  7>  C       -1.204852   -0.695622    0.000000 
|  8>  C        0.000000   -1.391243    0.000000 
|  9>  C        1.204852   -0.695622    0.000000 
| 10>  C        1.204852    0.695622    0.000000 
| 11>  H       -0.000000    2.473155    0.000000 
| 12>  H       -2.141815    1.236578    0.000000 
| 13>  H       -2.141815   -1.236578    0.000000 
| 14>  H        0.000000   -2.473155    0.000000 
| 15>  H        2.141815   -1.236578    0.000000 
| 16>  H        2.141815    1.236578    0.000000 
| 17>  *
| 18>  
| 19> 
| 20>                          ****END OF INPUT****
================================================================================
================================================================================

----- Orbital basis set information -----
Your calculation utilizes the basis: def2-SVP
   F. Weigend and R. Ahlrichs, Phys. Chem. Chem. Phys. 7, 3297 (2005).



################################################################################


                                COMPOUND JOB  1 
Basename: benzene_lw1x_Compound_1
NOTE: please remember that MaxCore and PAL settings will be ignored.

################################################################################

================================================================================
                                       INPUT FILE
================================================================================
NAME = benzene_lw1x_Compound_1.inp
|  1>     ! DefGrid3 RIJCOSX TightPNO DLPNO-CCSD(T1)-F12 MiniPrint NoPop
|  2>     %Basis
|  3>       Basis "maug-cc-pV(D+d)Z"
|  4>       AuxJ  "AutoAux"
|  5>       AuxC  "AutoAux"
|  6>       CABS  "AutoAux"
|  7>     End
|  8> 
|  9>                          ****END OF INPUT****
================================================================================
Warning! AutoAux has not been tested for CABS - use at your own risk!
================================================================================

----- Orbital basis set information -----
Your calculation utilizes the basis: jun-cc-pV(D+d)Z 
  E. Papajak, D. G. Truhlar, J. Chem. Theory Comput. 7, 10-18 (2011).

----- AuxJ basis set information -----
Your calculation utilizes the AutoAux generation procedure.
  G. L. Stoychev, A. A. Auer, F. Neese, J. Chem. Theory Comput. 13, 554 (2017)

----- AuxC basis set information -----
Your calculation utilizes the AutoAux generation procedure.
  G. L. Stoychev, A. A. Auer, F. Neese, J. Chem. Theory Comput. 13, 554 (2017)

----- CABS information -----
Your calculation utilizes the AutoAux generation procedure.
  G. L. Stoychev, A. A. Auer, F. Neese, J. Chem. Theory Comput. 13, 554 (2017)


                    <<< The CABS basis set will be decontracted >>>

================================================================================
                                        WARNINGS
                       Please study these warnings very carefully!
================================================================================


WARNING: Post HF methods need fully converged wavefunctions
  ===> : Setting SCFConvForced true
         You can overwrite this default with %scf ConvForced false 


WARNING: MDCI localization with Augmented Hessian Foster-Boys
  ===> : Switching off randomization!

INFO   : the flag for use of the SHARK integral package has been found!


                       ****************************
                       * Single Point Calculation *
                       ****************************

---------------------------------
CARTESIAN COORDINATES (ANGSTROEM)
---------------------------------
  C     -0.000000    1.391243    0.000000
  C     -1.204852    0.695622    0.000000
  C     -1.204852   -0.695622    0.000000
  C      0.000000   -1.391243    0.000000
  C      1.204852   -0.695622    0.000000
  C      1.204852    0.695622    0.000000
  H     -0.000000    2.473155    0.000000
  H     -2.141815    1.236578    0.000000
  H     -2.141815   -1.236578    0.000000
  H      0.000000   -2.473155    0.000000
  H      2.141815   -1.236578    0.000000
  H      2.141815    1.236578    0.000000

----------------------------
CARTESIAN COORDINATES (A.U.)
----------------------------
  NO LB      ZA    FRAG     MASS         X           Y           Z
   0 C     6.0000    0    12.011   -0.000000    2.629068    0.000000
   1 C     6.0000    0    12.011   -2.276840    1.314535    0.000000
   2 C     6.0000    0    12.011   -2.276840   -1.314535    0.000000
   3 C     6.0000    0    12.011    0.000000   -2.629068    0.000000
   4 C     6.0000    0    12.011    2.276840   -1.314535    0.000000
   5 C     6.0000    0    12.011    2.276840    1.314535    0.000000
   6 H     1.0000    0     1.008   -0.000000    4.673586    0.000000
   7 H     1.0000    0     1.008   -4.047444    2.336794    0.000000
   8 H     1.0000    0     1.008   -4.047444   -2.336794    0.000000
   9 H     1.0000    0     1.008    0.000000   -4.673586    0.000000
  10 H     1.0000    0     1.008    4.047444   -2.336794    0.000000
  11 H     1.0000    0     1.008    4.047444    2.336794    0.000000



           ************************************************************
           *        Program running with 30 parallel MPI-processes    *
           *              working on a common directory               *
           ************************************************************
------------------------------------------------------------------------------
                   ___                                                        
                  /   \      - P O W E R E D   B Y -                         
                 /     \                                                     
                 |  |  |   _    _      __       _____    __    __             
                 |  |  |  | |  | |    /  \     |  _  \  |  |  /  |          
                  \  \/   | |  | |   /    \    | | | |  |  | /  /          
                 / \  \   | |__| |  /  /\  \   | |_| |  |  |/  /          
                |  |  |   |  __  | /  /__\  \  |    /   |      \           
                |  |  |   | |  | | |   __   |  |    \   |  |\   \          
                \     /   | |  | | |  |  |  |  | |\  \  |  | \   \       
                 \___/    |_|  |_| |__|  |__|  |_| \__\ |__|  \__/        
                                                                              
                      - O R C A' S   B I G   F R I E N D -                    
                                      &                                       
                       - I N T E G R A L  F E E D E R -                       
                                                                              
 v1 FN, 2020, v2 2021                                                         
------------------------------------------------------------------------------


Reading SHARK input file benzene_lw1x_Compound_1.SHARKINP.tmp ... ok
----------------------
SHARK INTEGRAL PACKAGE
----------------------

Number of atoms                             ...     12
Number of basis functions                   ...    138
Number of shells                            ...     66
Maximum angular momentum                    ...      2
Integral batch strategy                     ... SHARK/LIBINT Hybrid
RI-J (if used) integral strategy            ... SPLIT-RIJ (Revised 2003 algorithm where possible)
Printlevel                                  ...      1
Contraction scheme used                     ... SEGMENTED contraction
Coulomb Range Separation                    ... NOT USED
Exchange Range Separation                   ... NOT USED
Finite Nucleus Model                        ... NOT USED
Auxiliary Coulomb fitting basis             ... AVAILABLE
   # of basis functions in Aux-J            ...    936
   # of shells in Aux-J                     ...    336
   Maximum angular momentum in Aux-J        ...      3
Auxiliary J/K fitting basis                 ... NOT available
Auxiliary Correlation fitting basis         ... AVAILABLE
   # of basis functions in Aux-C            ...    936
   # of shells in Aux-C                     ...    336
   Maximum angular momentum in Aux-C        ...      3
Auxiliary 'external' fitting basis          ... NOT available
Integral threshold                          ...     1.000000e-10
Primitive cut-off                           ...     1.000000e-11
Primitive pair pre-selection threshold      ...     1.000000e-11

Calculating pre-screening integrals         ... done (  0.1 sec) Dimension = 66
Organizing shell pair data                  ... done (  0.2 sec)
Shell pair information
Total number of shell pairs                 ...      2211
Shell pairs after pre-screening             ...      2208
Total number of primitive shell pairs       ...     15597
Primitive shell pairs kept                  ...     11025
          la=0 lb=0:    666 shell pairs
          la=1 lb=0:    864 shell pairs
          la=1 lb=1:    297 shell pairs
          la=2 lb=0:    216 shell pairs
          la=2 lb=1:    144 shell pairs
          la=2 lb=2:     21 shell pairs

Calculating one electron integrals          ... done (  0.0 sec)
Calculating RI/J V-Matrix + Cholesky decomp.... done (  0.6 sec)
Calculating RI/C V-Matrix + Cholesky decomp.... done (  0.2 sec)
Calculating Nuclear repulsion               ... done (  0.0 sec) ENN=    203.997485770322 Eh

SHARK setup successfully completed in   2.1 seconds

Maximum memory used throughout the entire GTOINT-calculation: 12.6 MB


           ************************************************************
           *        Program running with 30 parallel MPI-processes    *
           *              working on a common directory               *
           ************************************************************

Diagonalization of the overlap matrix:
Smallest eigenvalue                        ... 1.079e-05
Time for diagonalization                   ...    0.017 sec
Threshold for overlap eigenvalues          ... 1.000e-08
Number of eigenvalues below threshold      ... 0
Time for construction of square roots      ...    0.019 sec
Total time needed                          ...    0.039 sec

Time for model grid setup =    0.557 sec

Loading Hartree-Fock densities                     ... done
Calculating cut-offs                               ... done
Initializing the effective Hamiltonian             ... done
Setting up the integral package (SHARK)            ... done
Starting the Coulomb interaction                   ... done (   0.1 sec)
Reading the grid                                   ... done
Mapping shells                                     ... done
Starting the XC term evaluation                    ... done (   0.0 sec)
Transforming the Hamiltonian                       ... done (   0.0 sec)
Diagonalizing the Hamiltonian                      ... done (   0.0 sec)
Back transforming the eigenvectors                 ... done (   0.0 sec)
Now organizing SCF variables                       ... done
--------------------
COSX GRID GENERATION
--------------------

GRIDX 1
-------
General Integration Accuracy     IntAcc      ... 4.020
Radial Grid Type                 RadialGrid  ... OptM3 with GC (2021)
Angular Grid (max. ang.)         AngularGrid ... 2 (Lebedev-110)
Angular grid pruning method      GridPruning ... 4 (adaptive)
Weight generation scheme         WeightScheme... Becke
Basis function cutoff            BFCut       ... 1.0000e-10
Integration weight cutoff        WCut        ... 1.0000e-14
Angular grids for H and He will be reduced by one unit
Partially contracted basis set               ... on
Rotationally invariant grid construction     ... off

Total number of grid points                  ...    17356
Total number of batches                      ...      276
Average number of points per batch           ...       62
Average number of grid points per atom       ...     1446
UseSFitting                                  ... on

GRIDX 2
-------
General Integration Accuracy     IntAcc      ... 4.338
Radial Grid Type                 RadialGrid  ... OptM3 with GC (2021)
Angular Grid (max. ang.)         AngularGrid ... 3 (Lebedev-194)
Angular grid pruning method      GridPruning ... 4 (adaptive)
Weight generation scheme         WeightScheme... Becke
Basis function cutoff            BFCut       ... 1.0000e-10
Integration weight cutoff        WCut        ... 1.0000e-14
Angular grids for H and He will be reduced by one unit
Partially contracted basis set               ... on
Rotationally invariant grid construction     ... off

Total number of grid points                  ...    37622
Total number of batches                      ...      596
Average number of points per batch           ...       63
Average number of grid points per atom       ...     3135
UseSFitting                                  ... on

GRIDX 3
-------
General Integration Accuracy     IntAcc      ... 4.871
Radial Grid Type                 RadialGrid  ... OptM3 with GC (2021)
Angular Grid (max. ang.)         AngularGrid ... 4 (Lebedev-302)
Angular grid pruning method      GridPruning ... 4 (adaptive)
Weight generation scheme         WeightScheme... Becke
Basis function cutoff            BFCut       ... 1.0000e-10
Integration weight cutoff        WCut        ... 1.0000e-14
Angular grids for H and He will be reduced by one unit
Partially contracted basis set               ... on
Rotationally invariant grid construction     ... off

Total number of grid points                  ...    70764
Total number of batches                      ...     1112
Average number of points per batch           ...       63
Average number of grid points per atom       ...     5897
UseSFitting                                  ... on

Time for X-Grid setup             =    1.929 sec

 re-compute Schwartz prescreening matrix in partically contracted basis (1) ...done (   0.103 sec)
--------------
SCF ITERATIONS
--------------
ITER       Energy         Delta-E        Max-DP      RMS-DP      [F,P]     Damp
               ***  Starting incremental Fock matrix formation  ***
  0   -230.4975353627   0.000000000000 0.06391682  0.00400625  0.1612483 0.7000
  1   -230.5758821349  -0.078346772171 0.04915155  0.00311160  0.1069971 0.7000
                               ***Turning on DIIS***
  2   -230.6246565335  -0.048774398673 0.11538349  0.00726660  0.0646703 0.0000
  3   -230.2213303676   0.403326165899 0.01092154  0.00066701  0.0274866 0.0000
  4   -230.6976351553  -0.476304787699 0.00316089  0.00027584  0.0046525 0.0000
                      *** Initiating the SOSCF procedure ***
                           *** Shutting down DIIS ***
                      *** Re-Reading the Fockian *** 
                      *** Removing any level shift *** 
ITER      Energy       Delta-E        Grad      Rot      Max-DP    RMS-DP
  5   -230.72050372  -0.0228685675  0.001875  0.001875  0.001411  0.000128
               *** Restarting incremental Fock matrix formation ***
  6   -230.72559095  -0.0050872269  0.000411  0.000373  0.003597  0.000139
  7   -230.72559356  -0.0000026144  0.000119  0.000143  0.000874  0.000035
  8   -230.72559386  -0.0000002940  0.000017  0.000014  0.000150  0.000006
                 **** Energy Check signals convergence ****
              ***Rediagonalizing the Fockian in SOSCF/NRSCF***

               *****************************************************
               *                     SUCCESS                       *
               *           SCF CONVERGED AFTER   9 CYCLES          *
               *****************************************************

Old exchange energy                            =    -33.258926355 Eh
New exchange energy                            =    -33.258882366 Eh
Exchange energy change after final integration =      0.000043989 Eh
Total energy after final integration           =   -230.725549886 Eh
Final COS-X integration done in                =     0.447 sec
Total Energy       :         -230.72554989 Eh           -6278.36140 eV
  Last Energy change         ...   -1.6761e-08  Tolerance :   1.0000e-06
  Last MAX-Density change    ...    1.7764e-15  Tolerance :   1.0000e-05
             **** THE GBW FILE WAS UPDATED (benzene_lw1x_Compound_1.gbw) ****
             **** DENSITY benzene_lw1x_Compound_1.scfp WAS UPDATED ****
             **** ENERGY FILE WAS UPDATED (benzene_lw1x_Compound_1.en.tmp) ****
             **** THE GBW FILE WAS UPDATED (benzene_lw1x_Compound_1.gbw) ****
             **** DENSITY benzene_lw1x_Compound_1.scfp WAS UPDATED ****
----------------
ORBITAL ENERGIES
----------------

  NO   OCC          E(Eh)            E(eV) 
   0   2.0000     -11.242417      -305.9217 
   1   2.0000     -11.241853      -305.9064 
   2   2.0000     -11.241848      -305.9062 
   3   2.0000     -11.240629      -305.8731 
   4   2.0000     -11.240625      -305.8729 
   5   2.0000     -11.240033      -305.8569 
   6   2.0000      -1.155040       -31.4302 
   7   2.0000      -1.018400       -27.7121 
   8   2.0000      -1.018395       -27.7119 
   9   2.0000      -0.826327       -22.4855 
  10   2.0000      -0.826322       -22.4854 
  11   2.0000      -0.711026       -19.3480 
  12   2.0000      -0.644129       -17.5276 
  13   2.0000      -0.621012       -16.8986 
  14   2.0000      -0.589094       -16.0301 
  15   2.0000      -0.589092       -16.0300 
  16   2.0000      -0.503188       -13.6924 
  17   2.0000      -0.494865       -13.4659 
  18   2.0000      -0.494863       -13.4659 
  19   2.0000      -0.337185        -9.1753 
  20   2.0000      -0.337179        -9.1751 
  21   0.0000       0.073914         2.0113 
  22   0.0000       0.073945         2.0122 
  23   0.0000       0.075279         2.0484 
  24   0.0000       0.089821         2.4442 
  25   0.0000       0.089849         2.4449 
  26   0.0000       0.108144         2.9427 
  27   0.0000       0.108206         2.9444 
  28   0.0000       0.115954         3.1553 
  29   0.0000       0.123152         3.3511 
  30   0.0000       0.144278         3.9260 
  31   0.0000       0.144280         3.9260 
  32   0.0000       0.154072         4.1925 
  33   0.0000       0.164878         4.4866 
  34   0.0000       0.168898         4.5960 
  35   0.0000       0.168904         4.5961 
  36   0.0000       0.188397         5.1265 
  37   0.0000       0.188422         5.1272 
  38   0.0000       0.197711         5.3800 
  39   0.0000       0.207955         5.6587 
  40   0.0000       0.208010         5.6602 
  41   0.0000       0.282968         7.7000 
  42   0.0000       0.284911         7.7528 
  43   0.0000       0.284981         7.7547 
  44   0.0000       0.292113         7.9488 
  45   0.0000       0.293104         7.9758 
  46   0.0000       0.293131         7.9765 
  47   0.0000       0.307956         8.3799 
  48   0.0000       0.370051        10.0696 
  49   0.0000       0.380657        10.3582 
  50   0.0000       0.380668        10.3585 
  51   0.0000       0.407972        11.1015 
  52   0.0000       0.407997        11.1022 
  53   0.0000       0.440682        11.9916 
  54   0.0000       0.489165        13.3109 
  55   0.0000       0.489195        13.3117 
  56   0.0000       0.492921        13.4131 
  57   0.0000       0.492924        13.4131 
  58   0.0000       0.673267        18.3205 
  59   0.0000       0.680614        18.5205 
  60   0.0000       0.760384        20.6911 
  61   0.0000       0.765617        20.8335 
  62   0.0000       0.812390        22.1062 
  63   0.0000       0.842910        22.9367 
  64   0.0000       0.843006        22.9394 
  65   0.0000       0.875798        23.8317 
  66   0.0000       0.876109        23.8401 
  67   0.0000       0.894166        24.3315 
  68   0.0000       0.899562        24.4783 
  69   0.0000       0.899623        24.4800 
  70   0.0000       0.911739        24.8097 
  71   0.0000       0.911745        24.8098 
  72   0.0000       0.958475        26.0814 
  73   0.0000       0.958498        26.0821 
  74   0.0000       0.963761        26.2253 
  75   0.0000       0.965776        26.2801 
  76   0.0000       0.965787        26.2804 
  77   0.0000       1.030247        28.0344 
  78   0.0000       1.046139        28.4669 
  79   0.0000       1.092702        29.7339 
  80   0.0000       1.146205        31.1898 
  81   0.0000       1.148884        31.2627 
  82   0.0000       1.225422        33.3454 
  83   0.0000       1.225446        33.3461 
  84   0.0000       1.243871        33.8474 
  85   0.0000       1.243871        33.8475 
  86   0.0000       1.253154        34.1001 
  87   0.0000       1.253177        34.1007 
  88   0.0000       1.268259        34.5111 
  89   0.0000       1.268334        34.5131 
  90   0.0000       1.317831        35.8600 
  91   0.0000       1.317833        35.8601 
  92   0.0000       1.394635        37.9499 
  93   0.0000       1.470299        40.0089 
  94   0.0000       1.532662        41.7059 
  95   0.0000       1.532674        41.7062 
  96   0.0000       1.755592        47.7721 
  97   0.0000       1.755602        47.7724 
  98   0.0000       1.764099        48.0036 
  99   0.0000       1.779835        48.4318 
 100   0.0000       1.854846        50.4729 
 101   0.0000       1.902324        51.7649 
 102   0.0000       1.922182        52.3052 
 103   0.0000       1.922233        52.3066 
 104   0.0000       1.950943        53.0879 
 105   0.0000       1.950944        53.0879 
 106   0.0000       1.962080        53.3909 
 107   0.0000       1.962084        53.3910 
 108   0.0000       1.982164        53.9374 
 109   0.0000       1.982171        53.9376 
 110   0.0000       2.010979        54.7215 
 111   0.0000       2.096482        57.0482 
 112   0.0000       2.096485        57.0483 
 113   0.0000       2.130138        57.9640 
 114   0.0000       2.151639        58.5491 
 115   0.0000       2.151653        58.5495 
 116   0.0000       2.186089        59.4865 
 117   0.0000       2.186100        59.4868 
 118   0.0000       2.196776        59.7773 
 119   0.0000       2.268398        61.7262 
 120   0.0000       2.268401        61.7263 
 121   0.0000       2.363362        64.3104 
 122   0.0000       2.363434        64.3123 
 123   0.0000       2.453134        66.7532 
 124   0.0000       2.500962        68.0546 
 125   0.0000       2.569784        69.9274 
 126   0.0000       2.744512        74.6820 
 127   0.0000       2.780015        75.6481 
 128   0.0000       2.780045        75.6489 
 129   0.0000       2.839464        77.2657 
 130   0.0000       2.839474        77.2660 
 131   0.0000       2.997552        81.5675 
 132   0.0000       2.997560        81.5678 
 133   0.0000       3.021416        82.2169 
 134   0.0000       3.142026        85.4989 
 135   0.0000       3.296252        89.6956 
 136   0.0000       3.296262        89.6959 
 137   0.0000       4.051984       110.2601 
Total SCF time: 0 days 0 hours 0 min 9 sec 

Maximum memory used throughout the entire SCF-calculation: 53.5 MB


           ************************************************************
           *        Program running with 30 parallel MPI-processes    *
           *              working on a common directory               *
           ************************************************************


------------------------------------------------------------------------------- 
                              ORCA-MATRIX DRIVEN CI                            
------------------------------------------------------------------------------- 


Wavefunction type
-----------------
Correlation treatment                      ...      CCSD     
Single excitations                         ... ON
Orbital optimization                       ... OFF
Calculation of Z vector                    ... OFF
Calculation of Brueckner orbitals          ... OFF
Perturbative triple excitations            ... ON
Calculation of F12 correction              ... ON
   Using RI for F12 correction             ... ON
   GSO occupation number cut-off           ... 0.000e+00
Frozen core treatment                      ... chemical core (12 el)
Reference Wavefunction                     ... RHF
  Internal Orbitals:     6 ...   20 ( 15 MO's/ 30 electrons)
  Virtual  Orbitals:    21 ...  137 (117 MO's              )
Number of AO's                             ...    138
Number of electrons                        ...     42
Number of correlated electrons             ...     30

Algorithmic settings
--------------------
Integral transformation                    ... All integrals via the RI transformation
K(C) Formation                             ... RI-DLPNO
   PNO-Integral Storage                    ... ON DISK
   PNO occupation number cut-off           ... 1.000e-07
   Singles PNO occupation number cut-off   ... 3.000e-09
   PNO Mulliken prescreening cut-off       ... 1.000e-03
   Domain cut-off (Mulliken population)    ... 1.000e-03
   PNO Normalization                       ...    1
Maximum number of iterations               ...        50
Convergence tolerance (max. residuum)      ... 2.500e-05
Level shift for amplitude update           ... 2.000e-01
Maximum number of DIIS vectors             ...         7
DIIS turned on at iteration                ...         0
Damping before turning on DIIS             ...     0.500
Damping after turning on DIIS              ...     0.000
Pair specific amplitude update             ... OFF
Natural orbital iterations                 ... OFF
Perturbative natural orbital generation    ... OFF
Printlevel                                 ... 2

Singles Fock matrix elements calculated using PNOs.

Memory handling:
----------------
Maximum memory for working arrays          ...   2000 MB
Data storage in matrix containers          ... UNCOMPRESSED
Data type for integral storage             ... DOUBLE
In-Core Storage of quantities:
   Amplitudes+Sigma Vector      ... NO
   J+K operators                ... NO
   DIIS vectors                 ... NO
   3-external integrals         ... NO
   4-external integrals         ... NO

Localization treatment:
-----------------------
Localization option                        ...    6
Localization threshhold                    ... -1.0e+00
Using relative localization threshhold     ... 1.0e-08
Neglect threshold for strong pairs         ... 1.000e-05 Eh
Prescreening threshold for very weak pairs ... 1.000e-07 Eh

Initializing the integral package          ... done
Localizing the valence orbitals
------------------------------------------------------------------------------
                           ORCA ORBITAL LOCALIZATION
------------------------------------------------------------------------------

Input orbitals are from                  ... benzene_lw1x_Compound_1.gbw
Output orbitals are to                   ... benzene_lw1x_Compound_1.loc
Max. number of iterations                ... 128
Localizations seeded randomly            ... off
Convergence tolerance                    ... 1.000e-06
Using relative localization threshhold   ... 1.000e-08
Treshold for strong local MOs            ... 9.500e-01
Treshold for bond MOs                    ... 8.500e-01
Operator                                 ... 0
Orbital range for localization           ... 6 to 20
Localization criterion                   ... FOSTER-BOYS (AUGMENTED HESSIAN)
Doing the dipole integrals     ... o.k.
Initial value of the localization sum :   125.988578
ITERATION   0 : L=  135.2291438619 DL=  9.24e+00 (AVERGE_DL)=    0.2966570254 
ITERATION   1 : L=  138.1923097071 DL=  2.96e+00 (AVERGE_DL)=    0.1679899613 
ITERATION   2 : L=  138.1952788343 DL=  2.97e-03 (AVERGE_DL)=    0.0053176500 
ITERATION   3 : L=  138.1952796978 DL=  8.64e-07 (AVERGE_DL)=    0.0000906876 
LOCALIZATION SUM CONVERGED

------------------------------------------------------
AUGMENTED HESSIAN OPTIMIZATION OF FOSTER-BOYS ORBITALS
------------------------------------------------------

Spin operator:           0
Orbital window:          6 to 20
Number of iterations:    128
Gradient tolerance:      1.000e-06
Number of pairs:         105
Davidson threshold:      2000
Diagonalization method:  LAPACK
Iter:    0   L: 138.1952796978   Grad. norm: 7.241725e-04
   *** Detected a saddle point. ***
       Augmented Hessian eigenvalues:  1.79e+00  5.97e-01  5.96e-01  9.86e-07 ... 
Iter:    1   L: 138.3549894896   Grad. norm: 6.871603e-01
Iter:    2   L: 138.9297816034   Grad. norm: 3.043895e+00
Iter:    3   L: 139.4112960636   Grad. norm: 1.376162e+00
Iter:    4   L: 139.4574875753   Grad. norm: 5.420556e-02
   *** Likely close to a maximum now. ***
       Augmented Hessian eigenvalues:  2.33e-04 -2.65e+00 -3.23e+00 -3.24e+00 ... 
Iter:    5   L: 139.4576043049   Grad. norm: 1.722679e-04
Iter:    6   L: 139.4576043055   Grad. norm: 8.475996e-10
LOCALIZATION HAS CONVERGED.

Eigenvalues of the Hessian:
  0 -2.651e+00
  1 -3.232e+00
  2 -3.233e+00
  3 -1.022e+01
  4 -1.091e+01
  5 -1.091e+01
  6 -1.384e+01
  7 -1.740e+01
  8 -1.768e+01
  9 -1.768e+01
    ...


------------------------------------------------------------------------------- 
                    LOCALIZED MOLECULAR ORBITAL COMPOSITIONS                   
------------------------------------------------------------------------------- 

The Mulliken populations for each LMO on each atom are computed
The LMO`s will be ordered according to atom index and type
  (A) Strongly localized MO`s have populations of >=0.950 on one atom
  (B) Two center bond orbitals have populations of >=0.850 on two atoms
  (C) Other MO`s are considered to be `delocalized`

FOUND  -   0 strongly local MO`s
       -  15 two center bond MO`s
       -   0 significantly delocalized MO`s

Bond-like localized orbitals:
MO  20:  11H  -   0.484373  and   5C  -   0.569949
MO  19:  10H  -   0.484373  and   4C  -   0.569948
MO  18:   9H  -   0.484699  and   3C  -   0.568606
MO  17:   8H  -   0.484374  and   2C  -   0.569943
MO  16:   7H  -   0.484375  and   1C  -   0.569938
MO  15:   6H  -   0.484697  and   0C  -   0.568615
MO  14:   5C  -   0.458761  and   4C  -   0.458760
MO  13:   5C  -   0.458760  and   4C  -   0.458761
MO  12:   5C  -   0.501221  and   0C  -   0.499514
MO  11:   4C  -   0.501221  and   3C  -   0.499515
MO  10:   3C  -   0.458513  and   2C  -   0.459396
MO   9:   3C  -   0.458517  and   2C  -   0.459394
MO   8:   2C  -   0.500016  and   1C  -   0.500017
MO   7:   1C  -   0.459396  and   0C  -   0.458514
MO   6:   1C  -   0.459396  and   0C  -   0.458515
Localized MO's were stored in: benzene_lw1x_Compound_1.loc

Localizing the core orbitals
------------------------------------------------------------------------------
                           ORCA ORBITAL LOCALIZATION
------------------------------------------------------------------------------

Input orbitals are from                  ... benzene_lw1x_Compound_1.loc
Output orbitals are to                   ... benzene_lw1x_Compound_1.loc
Max. number of iterations                ... 128
Localizations seeded randomly            ... off
Convergence tolerance                    ... 1.000e-06
Using relative localization threshhold   ... 1.000e-08
Treshold for strong local MOs            ... 9.500e-01
Treshold for bond MOs                    ... 8.500e-01
Operator                                 ... 0
Orbital range for localization           ... 0 to 5
Localization criterion                   ... FOSTER-BOYS (AUGMENTED HESSIAN)
Doing the dipole integrals     ... o.k.
Initial value of the localization sum :    41.471680
ITERATION   0 : L=   41.4716873856 DL=  7.07e-06 (AVERGE_DL)=    0.0006865275 
ITERATION   1 : L=   41.4716873856 DL=  0.00e+00 (AVERGE_DL)=    0.0000000000 
LOCALIZATION SUM CONVERGED

------------------------------------------------------
AUGMENTED HESSIAN OPTIMIZATION OF FOSTER-BOYS ORBITALS
------------------------------------------------------

Spin operator:           0
Orbital window:          0 to 5
Number of iterations:    128
Gradient tolerance:      1.000e-06
Number of pairs:         15
Davidson threshold:      2000
Diagonalization method:  LAPACK
Iter:    0   L: 41.4716873856   Grad. norm: 6.619310e-06
   *** Likely close to a maximum now. ***
       Augmented Hessian eigenvalues:  5.26e-13 -2.76e+01 -2.76e+01 -2.76e+01 ... 
Iter:    1   L: 41.4716873856   Grad. norm: 2.733789e-19
LOCALIZATION HAS CONVERGED.

Eigenvalues of the Hessian:
  0 -2.765e+01
  1 -2.765e+01
  2 -2.765e+01
  3 -2.765e+01
  4 -2.765e+01
  5 -2.765e+01
  6 -8.294e+01
  7 -8.294e+01
  8 -8.294e+01
  9 -8.294e+01
    ...


------------------------------------------------------------------------------- 
                    LOCALIZED MOLECULAR ORBITAL COMPOSITIONS                   
------------------------------------------------------------------------------- 

The Mulliken populations for each LMO on each atom are computed
The LMO`s will be ordered according to atom index and type
  (A) Strongly localized MO`s have populations of >=0.950 on one atom
  (B) Two center bond orbitals have populations of >=0.850 on two atoms
  (C) Other MO`s are considered to be `delocalized`

FOUND  -   6 strongly local MO`s
       -   0 two center bond MO`s
       -   0 significantly delocalized MO`s

Rather strongly localized orbitals:
MO   5:   5C  -   1.000900
MO   4:   4C  -   1.000900
MO   3:   3C  -   1.001031
MO   2:   2C  -   1.000900
MO   1:   1C  -   1.000900
MO   0:   0C  -   1.001031
Localized MO's were stored in: benzene_lw1x_Compound_1.loc

Warning: reference  - re-canonicalizations have been set to INT 1 VIRT 1
Warning: internal orbitals are localized - no re-canonicalization of internal orbitals
Warning: UsePNO is turned on - no re-canonicalization of internal and virtual orbitals

--------------------------
CLOSED-SHELL FOCK OPERATOR
--------------------------

Restoring SHARK [2] ... ok
Entering RIJCOSX section for the Fock matrix
Trying to retrieve the full J-matrix              ... done
Updating the Fock matrix                          ... done
Making the frozen core Coulomb matrix             ... SHARKdone
Retrieving the full K-matrix                      ... done
Calculating the frozen core K-matrix              ... done
Updating the Fock matrix                          ... done
Time needed for Fock operator              ...            0.877 sec
Reference energy                           ...   -230.725560374

------------------------------
Initializing F12 data
------------------------------

Mapping basis set                  ... done
Dimension of the orbital basis set  = 138
Dimension of the CABS basis set     = 936
Dimension of the AUX basis set      = 936
Threshold for CABS orthogonalization = 1.000e-08
Will use an exponential correlation factor -Exp(-gamma r12)/gamma (gamma= 1.200) fit to 6 Gaussians 
Correlation factor:   
  NGauss  :          6      
  Gaussian expansion: 
    a(0)=     0.275538291  d(0)=    -0.219608291 
    a(1)=     1.140545861  d(1)=    -0.254494187 
    a(2)=     3.958256986  d(2)=    -0.154545985 
    a(3)=    13.126859124  d(3)=    -0.093273119 
    a(4)=    49.287410844  d(4)=    -0.057916694 
    a(5)=   272.920095267  d(5)=    -0.035942168 
Calculating one-electron matrices                       ... done (      0.2 sec)
Calculating pre-screening matrices:                     ...
       .... 1/r12 done          (      0.2 sec)
       .... f12/r12 done        (      0.2 sec)
       .... f12 done            (      0.1 sec)
       .... f12^2 done          (      0.3 sec)
       .... [f12,[T1,f12]] done (      0.3 sec)
                                                        ... done (      1.0 sec)
Making CABS spaces                                      ... done (      0.2 sec)
Calculating 2-index 2-center F12 integrals              ... 
Two index explicit correlation integrals  op=0          ... done (      0.1 sec) 
Two index explicit correlation integrals  op=1          ... done (      0.1 sec) 
Two index explicit correlation integrals  op=2          ... done (      0.1 sec) 
Two index explicit correlation integrals  op=3          ... done (      0.1 sec) 
Two index explicit correlation integrals  op=4          ... done (      0.1 sec) 
                                                            done (      0.4 sec)

--------------
DLPNO SETTINGS (2015 fully linear scaling implementation)
--------------

TCutMKN:           1.000e-03
TCutPAO:           1.000e-03
TCutPNO:           1.000e-07
TCutPNOSingles:    3.000e-09
TCutEN:            9.700e-01
TCutPAOExt:        1.000e-01
TCutPairs:         1.000e-05
TCutPre:           1.000e-07
TCutOSV:           1.000e-06
TCutDOij:          1.000e-05
TCutDO:            5.000e-03
TCutC:             1.000e-04
TCutCPAO:          1.000e-03
TCutCMO:           1.000e-03
TScaleDOMP2PreScr: 2.000e+00
TScaleMKNMP2PreScr:1.000e+01
TScalePNOMP2PreScr:1.000e+00
PAO overlap thresh 1.000e-08
Using PNOs for Singles Fock computation
Use new domains
Use fully linear algorithm
TCutTNO:           1.000e-09
TCutMP2Pairs:      1.000e-06
TCutDOStrong:      2.000e-03
TCutMKNStrong:     1.000e-02
TCutMKNWeak:       1.000e-01
TCutDOWeak:        4.000e-03
NTCutTNO:          1

--------------------------
Mulliken population of the LMOs            ... ok
Performing proximity check                 ... No problems found
Calculating differential overlap integrals ... ok

--------------------------
ELECTRON PAIR PRESCREENING
--------------------------

Dipole-based pair screening          .... used

   TCutDOij = 1.000000e-05
   TCutPre  = 1.000000e-07
   .... Finished loop over pairs
Total time spent in the prescreening                  ...     0.020 sec
sum of pair energies estimated for screened out pairs ...       0.000000000000 Eh
Thresholds for map construction and integral transformation for crude MP2:
   TCutMKN                    ...     1.0e-02
   TCutDO                     ...     1.0e-02
   TCutPairs                  ...     1.0e-05
   TCutPNO_CrudeMP2           ...     1.0e-07
   TCutPNOSingles_CrudeMP2    ...     3.0e-09
--------------------------------
LOCAL RI TRANSFORMATION (IAVPAO)
--------------------------------

Orbital window:       6 to 20
Number of PAOs:     138
Basis functions:    138 (66 shells)
Aux. functions:     936 (336 shells)
Use SHARK:           on

Processing maps (0.0 sec)
Average map sizes:
   Aux shells -> MOs              15.0
   Aux shells -> PAOs            138.0
   MOs        -> AO shells        66.0
   PAOs       -> AO shells        66.0

Calculating integrals (0.5 sec, 14.793 MB)
Sorting integrals (0.1 sec, 14.782 MB)
Total time for the integral transformation: 0.8 sec
--------------------------------
INITIAL GUESS AND PNO GENERATION
--------------------------------

PNO truncation parameters                   .... 
    PAOOverlapThresh   =        1.000e-08

    TCutPairs          =        1.000e-05
    TCutPNO            =        1.000e-07
    TCutPNOSingles     =        3.000e-09
    TCutMP2Pairs       =        1.000e-06
    TCutMKN            =        1.000e-02
    TCutDO             =        1.000e-02

Pair selection                          .... not used
Type of local MP2 treatment                 .... semi-local MP2
Strategy for PNO selection                  .... occupation number selection
Pair density normalization                  .... MP2 norm
Spin component scaling                      .... not used

   .... Finished loop over pairs
Making pair pair interaction lists          ... done

                       ===========================
                        120 OF  120 PAIRS ARE KEPT CCSD PAIRS
                          0 OF  120 PAIRS ARE KEPT MP2 PAIRS FOR (T)
                          0 OF  120 PAIRS ARE SKIPPED
                       ===========================

Total time spent in the initial guess                 ...     0.342 sec
SL-MP2 correlation energy (all non-screened pairs)    ...      -0.747979288949 Eh

Initial PNO correlation energy                        ...      -0.747685323429 Eh
sum of pair energies prescreened and skipped MP2 pairs...       0.000000000000 Eh
sum of pair energies of crude MP2 skipped pairs only  ...       0.000000000000 Eh
sum of MP2 pair energies for pairs that were not kept ...       0.000000000000 Eh
sum of PNO error estimates for the kept pairs         ...      -0.000293965521 Eh
                                                          --------------------
sum of all corrections                                         -0.000293965521
Initial total correlation energy                               -0.747979288949
Thresholds for map construction and integral transformation for fine MP2 and CCSD(T) calculation:
   TCutMKN   ...     1.0e-03
   TCutDO    ...     5.0e-03
   TCutPairs ...     1.0e-05
   TCutCMO   ...     1.0e-03
   TCutCPAO  ...     1.0e-03

Thresholds for map construction and integral transformation for strong Triples:
   TCutMKN   ...     1.0e-02
   TCutDO    ...     1.0e-02
   TCutCMO   ...     1.0e-03
   TCutCPAO  ...     1.0e-03

Thresholds for map construction and integral transformation for weak Triples:
   TCutMKN   ...     1.0e-01
   TCutDO    ...     2.0e-02
   TCutCMO   ...     1.0e-03
   TCutCPAO  ...     1.0e-03

--------------------------------
LOCAL RI TRANSFORMATION (IAVPAO)
--------------------------------

Orbital window:       6 to 20
Number of PAOs:     138
Basis functions:    138 (66 shells)
Aux. functions:     936 (336 shells)
Use SHARK:           on

Processing maps (0.0 sec)
Average map sizes:
   Aux shells -> MOs              15.0
   Aux shells -> PAOs            138.0
   MOs        -> AO shells        66.0
   PAOs       -> AO shells        66.0

Calculating integrals (0.6 sec, 14.793 MB)
Sorting integrals (0.1 sec, 14.782 MB)
Total time for the integral transformation: 0.9 sec
--------------------------------
INITIAL GUESS AND PNO GENERATION
--------------------------------

PNO truncation parameters                   .... 
    ScaleTCutPNO       =        1.000e-02
    PAOOverlapThresh   =        1.000e-08

    TCutPairs          =        1.000e-05
    TCutPNO            =        1.000e-07
    TCutPNOSingles     =        3.000e-09
    TCutMP2Pairs       =        1.000e-06
    TCutMKN            =        1.000e-03
    TCutDO             =        5.000e-03

Pair selection                          .... not used
Type of local MP2 treatment                 .... full local PMP2
Strategy for PNO selection                  .... occupation number selection
Pair density normalization                  .... MP2 norm
Spin component scaling                      .... not used

PASS-1: Formation of initial guess LMP2 amplitudes
Initial amplitudes guess done. Entering LMP2 iteration loop:
   Max. no of iterations          ...  50
   Energy convergence tolerance   ...    1.0e-07
   Residual convergence tolerance ...    5.0e-07
   Fock matrix cutoff             ...    1.0e-05 Eh
   DIIS convergence acceleration parameters:
        Max # vectors in DIIS     ... 7
        Start iteration of DIIS   ... 0
        Levelshift                ... 2.000e-01
        Damping factor 1          ... 5.000e-01
        Damping factor 2          ... 1.000e+00
   L-MP2 PNO cut-off              ...   1.0e-09
   L-MP2 PNO cut-off (core)       ...   1.0e-11
                           *** Turning on DIIS ***
LMP2-Iter=   0:  ELMP2= -0.771137646586  DE=   2.3e-02 RMAX=   6.8e-03
LMP2-Iter=   1:  ELMP2= -0.783370287894  DE=   1.2e-02 RMAX=   3.2e-03
LMP2-Iter=   2:  ELMP2= -0.786516061661  DE=   3.1e-03 RMAX=   1.3e-03
LMP2-Iter=   3:  ELMP2= -0.786899165725  DE=   3.8e-04 RMAX=   4.1e-04
LMP2-Iter=   4:  ELMP2= -0.786894562324  DE=   4.6e-06 RMAX=   1.1e-04
LMP2-Iter=   5:  ELMP2= -0.786892300154  DE=   2.3e-06 RMAX=   2.1e-05
LMP2-Iter=   6:  ELMP2= -0.786892650331  DE=   3.5e-07 RMAX=   4.3e-06
LMP2-Iter=   7:  ELMP2= -0.786892896420  DE=   2.5e-07 RMAX=   9.4e-07
LMP2-Iter=   8:  ELMP2= -0.786892931258  DE=   3.5e-08 RMAX=   2.1e-07
LMP2-Iter=   9:  ELMP2= -0.786892926059  DE=   5.2e-09 RMAX=   5.7e-08 => CONVERGED
PASS-2: Formation of Pair natural orbitals
   .... Finished loop over pairs

 PNO Occupation Number Statistics: 
  | Av. % of trace(Dij) retained        ...  99.879026558289
  | sigma^2 in % of trace(Dij) retained ...   4.84e-02
  | Av. % of trace(Di) retained         ...  99.999838006101
  | sigma^2 in % of trace(Di) retained  ...   9.24e-10
 Distributions of % trace(Dij) recovered:
  |       >= 99.9  ...    90 ( 75.0 % of all pairs)
  |   [90.0, 99.0) ...     3 (  2.5 % of all pairs)
  |   [99.0, 99.9) ...    27 ( 22.5 % of all pairs)
 Distributions of % trace(Di) recovered :
  |       >= 99.9  ...    15 (100.0 % of all I-pairs )

Making pair pair interaction lists          ... done

                       ===========================
                        120 OF  120 PAIRS ARE KEPT
                       ===========================

Total time spent in the initial guess                 ...    15.299 sec
L-MP2 correlation energy (all non-screened pairs)     ...      -0.786892926059 Eh
L-MP2 PNO error correction                            ...      -0.000003186523 Eh
                                                          --------------------
Initial total L-MP2 energy (non-screened pairs)       ...      -0.786896112583 Eh

Initial PNO correlation energy                        ...      -0.786624930249 Eh
sum of pair energies estimated for screened out pairs ...       0.000000000000 Eh
sum of MP2 pair energies for pairs that were not kept ...       0.000000000000 Eh
sum of PNO error estimates for the kept pairs         ...      -0.000271182333 Eh
                                                          --------------------
sum of all corrections                                         -0.000271182333
Initial total correlation energy                               -0.786896112583
Thresholds for map construction and integral transformation for fine MP2 and CCSD(T) calculation:
   TCutMKN   ...     1.0e-03
   TCutDO    ...     5.0e-03
   TCutPairs ...     1.0e-05
   TCutCMO   ...     1.0e-03
   TCutCPAO  ...     1.0e-03

Number of pairs in F12 (TCutDOF12 = 3.000e-04)        ...     120

Time for aux screen maps:            0.002
Time for maps after fine MP2:            0.006
-----------------------------
LOCAL RI TRANSFORMATION (IJV)
-----------------------------

Orbital window:       6 to 20
Basis functions:    138 (66 shells)
Aux. functions:     936 (336 shells)
Use SHARK:           on

Processing maps (0.0 sec)
Average map sizes:
   Aux shells -> MOs(i)           15.0
   Aux shells -> MOs(j)           15.0
   MOs        -> AO shells        66.0

Calculating integrals (0.3 sec, 1.617 MB)
Sorting integrals (0.1 sec, 1.607 MB)
Total time for the integral transformation: 0.4 sec
--------------------------------
LOCAL RI TRANSFORMATION (VABPAO)
--------------------------------

Number of PAOs:     138
Basis functions:    138 (66 shells)
Aux. functions:     936 (336 shells)
Use SHARK:           on

Processing maps (0.0 sec)
Average map sizes:
   Aux shells -> PAOs            138.0
   PAOs       -> AO shells        66.0

Calculating integrals (0.4 sec, 136.006 MB)
Finished


-------------------------------------
Pair Pair Term precalculation with     
RI-(ij|mn) and (im|jn) transformation  
ON THE FLY                             
-------------------------------------

   IBatch   1 (of   2)              ... done (    8.337 sec)
   IBatch   2 (of   2)              ... done (    1.909 sec)
Total EXT                           ...          10.246 sec

---------------------
RI-PNO TRANSFORMATION
---------------------

Total Number of PNOs                   ...  5115
Average number of PNOs per pair        ...    42
Maximal number of PNOs per pair        ...    70
   #pairs with  1 -  5 PNOs   :    0
   #pairs with  6 - 10 PNOs   :    0
   #pairs with 11 - 15 PNOs   :    0
   #pairs with 16 - 20 PNOs   :    3
   #pairs with 21 - 25 PNOs   :   12
   #pairs with 26 - 30 PNOs   :    6
   #pairs with 31 - 35 PNOs   :   15
   #pairs with 36 - 40 PNOs   :   21
   #pairs with 41 - 45 PNOs   :   24
   #pairs with 46 - 50 PNOs   :   18
   #pairs with 56 - 60 PNOs   :    6
   #pairs with 66 - 70 PNOs   :   15

Generation of (ij|ab)[P] integrals            ... on
Generation of (ia|bc)[P],(ja|bc)[P] integrals ... on
Storage of 3 and 4 external integrals         ... on
Generation of ALL (ka|bc)[P] integrals        ... on
Keep RI integrals in memory                   ... off

Ibatch:  1 (of  1)
Starting 2-4 index PNO integral generation ... done

Timings:
Total PNO integral transformation time     ...         13.538 sec
Size of the 3-external file                ...        96 MB
Size of the 4-external file                ...       676 MB
Size of the IKJL file                      ...         0 MB
Size of the all 3-external file            ...       722 MB
Size of the 1-external file                ...         1 MB

Making pair/pair overlap matrices          ... done (    0.521 sec)
Size of the pair overlap file              ... 142 MB
Redoing the guess amplitudes               ... done (    0.014 sec)

-------------------------
FINAL STARTUP INFORMATION
-------------------------

E(0)                                       ...   -230.725560374
E(L-MP2)                                   ...     -0.786896113
E(L-MP2) including corrections             ...     -0.786896113
Initial E(tot)                             ...   -231.512456487
<T|T>                                      ...      0.257122677
Number of pairs included                   ... 120
Total number of pairs                      ... 120

------------------------------------------------
                  RHF COUPLED CLUSTER ITERATIONS
------------------------------------------------

Number of PNO amplitudes to be optimized   ...       241035
Number of non-PNO amplitudes               ...      1642680
Untruncated number of regular amplitudes   ...      1642680

Iter       E(tot)           E(Corr)          Delta-E          Residual     Time
  0   -231.473677240     -0.747845683      0.039050429      0.012050568   23.07
                           *** Turning on DIIS ***
  1   -231.519232350     -0.793400793     -0.045555110      0.004897334   17.78
  2   -231.544353485     -0.818521929     -0.025121135      0.002410974   24.84
  3   -231.548301000     -0.822469443     -0.003947514      0.001772867   27.72
  4   -231.549913821     -0.824082264     -0.001612821      0.000811065   24.29
  5   -231.550549798     -0.824718242     -0.000635978      0.000373291   19.32
  6   -231.550718918     -0.824887361     -0.000169119      0.000098918   24.02
  7   -231.550729643     -0.824898086     -0.000010725      0.000032582   23.73
  8   -231.550734517     -0.824902961     -0.000004875      0.000007528   24.22
               --- The Coupled-Cluster iterations have converged ---
Making OccT1 to AO map ... ok
3-index local transformation (OBS,OBS/AUX) for   op=0   ... done (      0.5 sec)
3-index local transformation (OBS,CABS/AUX) for  op=0   ... done (      2.1 sec)
3-index local transformation (OBS,OBS/AUX) for   op=1   ... done (      0.6 sec)
3-index local transformation (OBS,CABS/AUX) for  op=1   ... done (      1.3 sec)
3-index local transformation (OBS,OBS/AUX) for   op=2   ... done (      0.5 sec)
3-index local transformation (OBS,CABS/AUX) for  op=2   ... done (      1.5 sec)
3-index local transformation (OBS,OBS/AUX) for   op=3   ... done (      0.6 sec)
3-index local transformation (OBS,CABS/AUX) for  op=3   ... done (      1.4 sec)
3-index local transformation (OBS,OBS/AUX) for   op=4   ... done (      0.8 sec)
3-index local transformation (OBS,CABS/AUX) for  op=4   ... done (      1.6 sec)
3-index local transformation (OBS,OBS/AUX) of (pa|X)    ... done (      2.1 sec)
3-index local transformation (OBS_T1,OBS/AUX) for op=0  ... done (      0.5 sec)
3-index local transformation (OBS_T1,OBS/AUX) for op=1  ... done (      0.6 sec)
3-index local transformation (OBS_F,OBS/AUX) for op=2   ... done (      0.5 sec)
3-index local transformation (OBS_F,CABS/AUX)for op=2   ... done (      2.2 sec)
------------------------
RHF DLPNO F12 CORRECTION
------------------------

Doing SCF density matrices                              ... done (      0.0 sec)
Calculating RI Coulomb operators
Retrieving the Coulomb fitting basis                    ... done
       .... OBS/OBS done        (      0.2 sec)
       .... CABS/OBS done       (      0.3 sec)
       .... CABS/CABS done      (      0.4 sec)

F12 OBS GRIDX
-------------

General Integration Accuracy     IntAcc      ... 4.338
Radial Grid Type                 RadialGrid  ... OptM3 with GC (2021)
Angular Grid (max. ang.)         AngularGrid ... 3 (Lebedev-194)
Angular grid pruning method      GridPruning ... 5 (extended)
Weight generation scheme         WeightScheme... Becke
Basis function cutoff            BFCut       ... 1.0000e-10
Integration weight cutoff        WCut        ... 1.0000e-14
Angular grids for H and He will be reduced by one unit
Partially contracted basis set               ... on
Rotationally invariant grid construction     ... off

Total number of grid points                  ...    91940
Total number of batches                      ...     1442
Average number of points per batch           ...       63
Average number of grid points per atom       ...     7662

F12 CABS GRIDX
--------------

General Integration Accuracy     IntAcc      ... 4.338
Radial Grid Type                 RadialGrid  ... OptM3 with GC (2021)
Angular Grid (max. ang.)         AngularGrid ... 3 (Lebedev-194)
Angular grid pruning method      GridPruning ... 5 (extended)
Weight generation scheme         WeightScheme... Becke
Basis function cutoff            BFCut       ... 1.0000e-10
Integration weight cutoff        WCut        ... 1.0000e-14
Angular grids for H and He will be reduced by one unit
Partially contracted basis set               ... on
Rotationally invariant grid construction     ... off

Total number of grid points                  ...    91940
Total number of batches                      ...     1442
Average number of points per batch           ...       63
Average number of grid points per atom       ...     7662

Calculating COSX Exchange operators
       .... OBS/OBS done        (      1.0 sec)
       .... CABS/OBS done       (      1.1 sec)
       .... CABS/CABS done      (      6.4 sec)
Completing Fock operators                               ... done (      0.3 sec)
Calculating F12 intermediates (incore)                  ... 

WARNING (ORCA_TOOLS): CalcCholeskyLLoc() returned with error 1
                      Potentially linear dependencies in the aux basis!



WARNING (ORCA_TOOLS): CalcCholeskyLLoc() returned with error 1
                      Potentially linear dependencies in the aux basis!



WARNING (ORCA_TOOLS): CalcCholeskyLLoc() returned with error 1
                      Potentially linear dependencies in the aux basis!



WARNING (ORCA_TOOLS): CalcCholeskyLLoc() returned with error 1
                      Potentially linear dependencies in the aux basis!


Total T*B*T Contribution              =   0.185102891075

Total V*T MP2 Contribution            =  -0.428136421203

Total V*T CCSD without S Contribution =  -0.365965059300

Total V*T CCSD with S Contribution    =  -0.367804367503

DeltaEC_MP2                           =  -0.243033530128

DeltaEC_CCSD without S                =  -0.180862168225

DeltaEC_CCSD with S                   =  -0.182701476429
Total time of computation of intermediates                       (     18.0 sec)
Calculating correlation correction                      ... done (      0.5 sec)

F12 correction                   :  -0.182701476429
HF basis set correction          :  -0.060662456219
Sum of the two                   :  -0.243363932647

Total time for F12 correction    :    30.070 sec
  .... cleaning up and leaving F12-CCSD

----------------------
COUPLED CLUSTER ENERGY
----------------------

Uncorrected 0th order energy               ...   -230.725560374
F12-HF basis set correction                ...     -0.060662456
Corrected 0th order energy                 ...   -230.786222831

E(CORR)(strong-pairs)                      ...     -0.824902961
E(CORR)(weak-pairs)                        ...     -0.000271182
E(CORR)(corrected)                         ...     -0.825174143
Uncorrected correlation energy             ...     -0.824902961
F12-correction to the correlation energy   ...     -0.182701476
Final F12 correlation energy               ...     -1.007875620

E(TOT)-before F12 corrections              ...   -231.550734517
E(TOT)-after HF correction                 ...   -231.611396974
E(TOT)-after all F12 corrections           ...   -231.794098450

Singles Norm <S|S>**1/2                    ...      0.052285373  
T1 diagnostic                              ...      0.009545959  

------------------
LARGEST AMPLITUDES
------------------
  14-> 21  14-> 21       0.029877
  13-> 21  13-> 21       0.029877
   9-> 21   9-> 21       0.029873
  10-> 21  10-> 21       0.029873
   6-> 21   6-> 21       0.029873
   7-> 21   7-> 21       0.029873
  18-> 24  18-> 24       0.029494
  15-> 24  15-> 24       0.029494
  16-> 24  16-> 24       0.029493
  17-> 24  17-> 24       0.029493
  19-> 24  19-> 24       0.029492
  20-> 24  20-> 24       0.029492
  17-> 32  17-> 32       0.025574
  16-> 32  16-> 32       0.025574
  15-> 32  15-> 32       0.025559
  18-> 32  18-> 32       0.025559


-------------------------------------------
DLPNO BASED TRIPLES CORRECTION
-------------------------------------------

Singles multiplier          ...  1.000000
TCutTNO                     ... 1.000e-09
TCutMP2Pairs                ... 1.000e-06
TCutDOStrong                ... 1.000e-02
TCutMKNStrong               ... 1.000e-02
TCutDOWeak                  ... 2.000e-02
TCutMKNWeak                 ... 1.000e-01

Parameters used in iterative triples
TCutFock                    ... 1.000e-03
TCutWeak                    ... 1.000e-08
TCutWeakGuess               ... 6.000e-06
TCutIter                    ... 1.000e-03
TNOScaleS                   ... 1.000e+01
TNOScaleW                   ... 1.000e+02
ETol                        ... 1.000e-04

Fragment selection                          .... not used
Number of Triples that are to be computed   ...       665

 . . . . . . . . .
10% done  
20% done  
30% done  
40% done  
50% done  
60% done  
70% done  
80% done  
90% done               (     15.848 sec)

-------------------
Triples Iterations:
-------------------

The T1 Strong/Weak pair is = 318/347 

Iter        E(Triple)      Delta-E            Time
  0     0.000000000000    0.033989795444     16.11
  1    -0.035938942362    0.001949146918     39.51
  2    -0.036249829934    0.000310887572     35.33
  3    -0.036283177156    0.000033347222     35.80

------------------
TRIPLES CORRECTION
------------------

The Conventional (T0) is    -0.034132525207
The Truncated    (T0) is    -0.033989795444
The corrected     (T) is    -0.036425906919

Triples timings:
Total time for T0               ...    16.853 sec
Total time for Iterative (T)    ...   112.794 sec
Total time of overall (T)       ...   136.388 sec

Triples List generation         ...     0.000 sec
TNO generation                  ...     0.264 sec
Pair density generation         ...     0.003 sec
Look up tables                  ...     0.000 sec
Generating 3-index integrals    ...     5.844 sec
  Make 4-ind.int. from 3-ind.int...     2.753 sec
  Projecting amplitudes (D + S) ...     0.342 sec
  Downprojecting integrals      ...     2.103 sec
  Energy contr. (sum over a,b,c)...     2.610 sec
Fitting ET(->0)                 ...     0.000 sec

Everything after 3-index        ...    10.004 sec

Timing details:
 TNO integrals                  ...     8.261 sec
   Reading 3-index integrals    ...     1.781 sec
   Sorting integrals            ...     0.908 sec
       Sorting integrals 1      ...     0.000 sec
       Sorting integrals 2      ...     0.432 sec
       Sorting integrals 3      ...     0.090 sec
       Sorting integrals 4      ...     0.004 sec
       Sorting integrals 5      ...     0.014 sec
       Sorting integrals 6      ...     0.369 sec
   Calculating local VM**-1/2   ...     0.324 sec
   Orthogonal. integrals        ...     0.567 sec
   Multipl. 3-index integrals   ...     4.682 sec
   All concerning IRIab (w/TNO) ...     1.417 sec

 Calculate W0/W1                ...     2.193 sec
 W 3-ext contribution           ...     1.180 sec
 W 3-int contribution           ...     0.336 sec
 Sorting W                      ...     0.611 sec

 V exchange contribution        ...     1.201 sec

 Timings for Triples without generation
     of 3-index integrals       ...    10.003 sec
       0 weak pairs             ...    10.003 sec
       1 weak pair              ...     0.000 sec
       2 weak pairs             ...     0.000 sec
       3 weak pairs             ...     0.000 sec
  Extra time for extrapolation  ...     0.000 sec

Number of Triples   (0, 1, 2, 3 weak pairs; overall):    665       0       0       0  (   665)
Number of Atoms     (0, 1, 2, 3 weak pairs; overall):   12.0     0.0     0.0     0.0  (    12)
Number of PAOs      (0, 1, 2, 3 weak pairs; overall):  137.9     0.0     0.0     0.0  (   138)
Number of AuxFcns   (0, 1, 2, 3 weak pairs; overall):  743.0     0.0     0.0     0.0  (   936)
Number of TNOs      (0, 1, 2, 3 weak pairs         ):   82.7     0.0     0.0     0.0
Aver. Number of NTNO, Atoms, PAOs, AuxFcns / Triples:    665    82.7    12.0   137.9   743.0

Triples Correction (T)                     ...     -0.036425907
Final correlation energy (without F12)     ...     -0.861600050
Final correlation energy (with F12)        ...     -1.044301526
F12-E(CCSD)                                ...   -231.794098450
F12-E(CCSD(T))                             ...   -231.830524357



------------------------------------------------------------------------------- 
                                     TIMINGS                                   
------------------------------------------------------------------------------- 


Total execution time                   ...      443.876 sec

Localization of occupied MO's          ...        0.716 sec (  0.2%)
Fock Matrix Formation                  ...        0.877 sec (  0.2%)
Global overlap, Fock, MKN matrices     ...        0.402 sec (  0.1%)
Differential overlap integrals         ...        2.118 sec (  0.5%)
Organizing maps                        ...        0.016 sec (  0.0%)
RI 3-index integral generations        ...        2.516 sec (  0.6%)
RI-PNO integral transformation         ...       25.998 sec (  5.9%)
Initial Guess                          ...       15.681 sec (  3.5%)
DIIS Solver                            ...        3.639 sec (  0.8%)
State Vector Update                    ...        0.018 sec (  0.0%)
Sigma-vector construction              ...      207.272 sec ( 46.7%)
  <D|H|D>(0-ext)                       ...       30.941 sec ( 14.9% of sigma)
  <D|H|D>(2-ext Fock)                  ...        0.003 sec (  0.0% of sigma)
  <D|H|D>(2-ext)                       ...       18.585 sec (  9.0% of sigma)
  <D|H|D>(4-ext)                       ...        4.389 sec (  2.1% of sigma)
  <D|H|D>(4-ext-corr)                  ...       12.730 sec (  6.1% of sigma)
  CCSD doubles correction              ...        4.488 sec (  2.2% of sigma)
  <S|H|S>                              ...       32.564 sec ( 15.7% of sigma)
  <S|H|D>(1-ext)                       ...        0.268 sec (  0.1% of sigma)
  <D|H|S>(1-ext)                       ...        0.001 sec (  0.0% of sigma)
  <S|H|D>(3-ext)                       ...        0.277 sec (  0.1% of sigma)
  Fock-dressing                        ...       32.851 sec ( 15.8% of sigma)
  Singles amplitudes                   ...       16.210 sec (  7.8% of sigma)
  (ik|jl)-dressing                     ...       23.415 sec ( 11.3% of sigma)
  (ij|ab),(ia|jb)-dressing             ...       25.378 sec ( 12.2% of sigma)
  Pair energies                        ...        0.070 sec (  0.0% of sigma)
Total Time for computing F12           ...       47.147 sec ( 10.6% of ALL)
Total Time for computing (T)           ...      136.454 sec ( 30.7% of ALL)


Maximum memory used throughout the entire MDCI-calculation: 1899.7 MB

-------------------------   --------------------
FINAL SINGLE POINT ENERGY      -231.830524357005
-------------------------   --------------------


                            ***************************************
                            *     ORCA property calculations      *
                            ***************************************


  WARNING: The energy has been calculated at the MDCI level but the densities
           used in the property calculations are still SCF densities
           MDCI response densities have not been calculated 
           use %mdci Density linearized end
           or  %mdci Density unrelaxed end
           or  %mdci Density orbopt end

                                    ---------------------
                                    Active property flags
                                    ---------------------
   (+) Dipole Moment


------------------------------------------------------------------------------
                       ORCA ELECTRIC PROPERTIES CALCULATION
------------------------------------------------------------------------------

Dipole Moment Calculation                       ... on
Quadrupole Moment Calculation                   ... off
Polarizability Calculation                      ... off
GBWName                                         ... benzene_lw1x_Compound_1.gbw
Electron density                                ... benzene_lw1x_Compound_1.scfp
The origin for moment calculation is the CENTER OF MASS  = ( 0.000000,  0.000000  0.000000)

-------------
DIPOLE MOMENT
-------------
                                X             Y             Z
Electronic contribution:     -0.00000       0.00000       0.00000
Nuclear contribution   :      0.00000       0.00000       0.00000
                        -----------------------------------------
Total Dipole Moment    :     -0.00000       0.00000       0.00000
                        -----------------------------------------
Magnitude (a.u.)       :      0.00000
Magnitude (Debye)      :      0.00000



--------------------
Rotational spectrum 
--------------------
 
Rotational constants in cm-1:     0.191043     0.191043     0.095521 
Rotational constants in MHz :  5727.313348  5727.312438  2863.656447 

 Dipole components along the rotational axes: 
x,y,z [a.u.] :     0.000000    -0.000000     0.000000 
x,y,z [Debye]:     0.000000    -0.000000     0.000001 

 

Timings for individual modules:

Sum of individual times         ...      468.834 sec (=   7.814 min)
GTO integral calculation        ...       10.888 sec (=   0.181 min)   2.3 %
SCF iterations                  ...       11.771 sec (=   0.196 min)   2.5 %
MDCI module                     ...      446.175 sec (=   7.436 min)  95.2 %


################################################################################


                                COMPOUND JOB  2 
Basename: benzene_lw1x_Compound_2
NOTE: please remember that MaxCore and PAL settings will be ignored.

################################################################################

================================================================================
                                       INPUT FILE
================================================================================
NAME = benzene_lw1x_Compound_2.inp
|  1>     ! DefGrid3 RIJCOSX TightPNO DLPNO-CCSD(T1)-F12 MiniPrint NoPop
|  2>     %Basis
|  3>       Basis "maug-cc-pV(T+d)Z"
|  4>       AuxJ  "AutoAux"
|  5>       AuxC  "AutoAux"
|  6>       CABS  "AutoAux"
|  7>     End
|  8> 
|  9>                          ****END OF INPUT****
================================================================================
Warning! AutoAux has not been tested for CABS - use at your own risk!
================================================================================

----- Orbital basis set information -----
Your calculation utilizes the basis: may-cc-pV(T+d)Z 
  E. Papajak, D. G. Truhlar, J. Chem. Theory Comput. 7, 10-18 (2011).

----- AuxJ basis set information -----
Your calculation utilizes the AutoAux generation procedure.
  G. L. Stoychev, A. A. Auer, F. Neese, J. Chem. Theory Comput. 13, 554 (2017)

----- AuxC basis set information -----
Your calculation utilizes the AutoAux generation procedure.
  G. L. Stoychev, A. A. Auer, F. Neese, J. Chem. Theory Comput. 13, 554 (2017)

----- CABS information -----
Your calculation utilizes the AutoAux generation procedure.
  G. L. Stoychev, A. A. Auer, F. Neese, J. Chem. Theory Comput. 13, 554 (2017)


                    <<< The CABS basis set will be decontracted >>>

================================================================================
                                        WARNINGS
                       Please study these warnings very carefully!
================================================================================


WARNING: Post HF methods need fully converged wavefunctions
  ===> : Setting SCFConvForced true
         You can overwrite this default with %scf ConvForced false 


WARNING: MDCI localization with Augmented Hessian Foster-Boys
  ===> : Switching off randomization!

INFO   : the flag for use of the SHARK integral package has been found!


                       ****************************
                       * Single Point Calculation *
                       ****************************

---------------------------------
CARTESIAN COORDINATES (ANGSTROEM)
---------------------------------
  C     -0.000000    1.391243    0.000000
  C     -1.204852    0.695622    0.000000
  C     -1.204852   -0.695622    0.000000
  C      0.000000   -1.391243    0.000000
  C      1.204852   -0.695622    0.000000
  C      1.204852    0.695622    0.000000
  H     -0.000000    2.473155    0.000000
  H     -2.141815    1.236578    0.000000
  H     -2.141815   -1.236578    0.000000
  H      0.000000   -2.473155    0.000000
  H      2.141815   -1.236578    0.000000
  H      2.141815    1.236578    0.000000

----------------------------
CARTESIAN COORDINATES (A.U.)
----------------------------
  NO LB      ZA    FRAG     MASS         X           Y           Z
   0 C     6.0000    0    12.011   -0.000000    2.629068    0.000000
   1 C     6.0000    0    12.011   -2.276840    1.314535    0.000000
   2 C     6.0000    0    12.011   -2.276840   -1.314535    0.000000
   3 C     6.0000    0    12.011    0.000000   -2.629068    0.000000
   4 C     6.0000    0    12.011    2.276840   -1.314535    0.000000
   5 C     6.0000    0    12.011    2.276840    1.314535    0.000000
   6 H     1.0000    0     1.008   -0.000000    4.673586    0.000000
   7 H     1.0000    0     1.008   -4.047444    2.336794    0.000000
[...]
 233   0.0000       5.119548       139.3100 
 234   0.0000       5.168095       140.6310 
 235   0.0000       5.177568       140.8888 
 236   0.0000       5.233415       142.4085 
 237   0.0000       5.244373       142.7066 
 238   0.0000       5.368372       146.0808 
 239   0.0000       5.372976       146.2061 
 240   0.0000       5.372981       146.2062 
 241   0.0000       5.401142       146.9725 
 242   0.0000       5.401149       146.9727 
 243   0.0000       5.474004       148.9552 
 244   0.0000       5.474011       148.9554 
 245   0.0000       5.504621       149.7883 
 246   0.0000       5.504651       149.7892 
 247   0.0000       5.570794       151.5890 
 248   0.0000       5.570805       151.5893 
 249   0.0000       5.745778       156.3506 
 250   0.0000       5.821386       158.4080 
 251   0.0000       5.995875       163.1561 
 252   0.0000       5.995879       163.1562 
 253   0.0000       6.035745       164.2410 
 254   0.0000       6.083814       165.5490 
 255   0.0000       6.174228       168.0093 
 256   0.0000       6.174232       168.0094 
 257   0.0000       6.466928       175.9741 
 258   0.0000       6.554956       178.3694 
 259   0.0000       6.554971       178.3698 
 260   0.0000       6.565693       178.6616 
 261   0.0000       6.565696       178.6617 
 262   0.0000       7.081669       192.7020 
 263   0.0000       7.317513       199.1197 
 264   0.0000      10.402028       283.0536 
 265   0.0000      10.524255       286.3795 
 266   0.0000      10.524256       286.3796 
 267   0.0000      10.565412       287.4995 
 268   0.0000      10.565413       287.4995 
 269   0.0000      10.804465       294.0044 
 270   0.0000      11.411411       310.5203 
 271   0.0000      11.517699       313.4125 
 272   0.0000      11.517699       313.4125 
 273   0.0000      11.633826       316.5725 
 274   0.0000      11.633828       316.5726 
 275   0.0000      11.726829       319.1032 
 276   0.0000      11.771687       320.3239 
 277   0.0000      11.771688       320.3239 
 278   0.0000      11.862205       322.7870 
 279   0.0000      11.862209       322.7871 
 280   0.0000      11.875488       323.1485 
 281   0.0000      11.927417       324.5615 
 282   0.0000      12.840409       349.4053 
 283   0.0000      13.186998       358.8365 
 284   0.0000      13.187004       358.8366 
 285   0.0000      13.539151       368.4190 
 286   0.0000      13.539155       368.4191 
 287   0.0000      14.205975       386.5642 
 288   0.0000      14.579076       396.7168 
 289   0.0000      14.729149       400.8005 
 290   0.0000      14.764881       401.7728 
 291   0.0000      14.781009       402.2117 
 292   0.0000      14.781032       402.2123 
 293   0.0000      14.858435       404.3186 
 294   0.0000      14.858442       404.3188 
 295   0.0000      14.874200       404.7476 
 296   0.0000      14.963642       407.1814 
 297   0.0000      14.963650       407.1816 
 298   0.0000      15.007839       408.3841 
 299   0.0000      15.007853       408.3844 
 300   0.0000      15.130573       411.7238 
 301   0.0000      15.130578       411.7240 
 302   0.0000      15.132594       411.7788 
 303   0.0000      15.196930       413.5295 
 304   0.0000      15.196956       413.5302 
 305   0.0000      15.254379       415.0928 
 306   0.0000      15.327687       417.0876 
 307   0.0000      15.777066       429.3158 
 308   0.0000      15.777068       429.3158 
 309   0.0000      15.917255       433.1305 
 310   0.0000      15.934289       433.5941 
 311   0.0000      15.934293       433.5942 
 312   0.0000      16.474353       448.2899 
 313   0.0000      16.474364       448.2902 
 314   0.0000      16.548244       450.3006 
 315   0.0000      16.548259       450.3010 
 316   0.0000      16.678946       453.8572 
 317   0.0000      16.834607       458.0930 
 318   0.0000      50.222362      1366.6199 
 319   0.0000      50.310984      1369.0315 
 320   0.0000      50.310988      1369.0316 
 321   0.0000      50.348672      1370.0570 
 322   0.0000      50.348677      1370.0572 
 323   0.0000      50.517260      1374.6445 
 324   0.0000      50.932758      1385.9508 
 325   0.0000      51.011342      1388.0892 
 326   0.0000      51.011346      1388.0893 
 327   0.0000      51.107145      1390.6961 
 328   0.0000      51.107148      1390.6962 
 329   0.0000      51.171339      1392.4429 
 330   0.0000      51.210674      1393.5133 
 331   0.0000      51.210675      1393.5133 
 332   0.0000      51.246328      1394.4835 
 333   0.0000      51.246335      1394.4837 
 334   0.0000      51.293535      1395.7680 
 335   0.0000      51.443126      1399.8386 
 336   0.0000      61.911513      1684.6979 
 337   0.0000      62.399720      1697.9827 
 338   0.0000      62.399725      1697.9828 
 339   0.0000      62.880818      1711.0741 
 340   0.0000      62.880821      1711.0741 
 341   0.0000      63.788046      1735.7610 
Total SCF time: 0 days 0 hours 0 min 9 sec 

Maximum memory used throughout the entire SCF-calculation: 82.8 MB


           ************************************************************
           *        Program running with 30 parallel MPI-processes    *
           *              working on a common directory               *
           ************************************************************

------------------------------------------------------------------------------
                                ORCA  MP2 
------------------------------------------------------------------------------

Freezing NCore=0 chemical core electrons
Initializing SHARK ... done


------------------------------------------------------------------------------
                           ORCA ORBITAL LOCALIZATION
------------------------------------------------------------------------------

Input orbitals are from                  ... benzene_lw1x_Compound_4.gbw
Output orbitals are to                   ... benzene_lw1x_Compound_4.loc
Max. number of iterations                ... 128
Localizations seeded randomly            ... off
Convergence tolerance                    ... 1.000e-06
Treshold for strong local MOs            ... 9.500e-01
Treshold for bond MOs                    ... 8.500e-01
Operator                                 ... 0
Orbital range for localization           ... 0 to 20
Localization criterion                   ... FOSTER-BOYS (AUGMENTED HESSIAN)
Doing the dipole integrals     ... o.k.
Initial value of the localization sum :   118.029619
ITERATION   0 : L=  167.6390927325 DL=  4.96e+01 (AVERGE_DL)=    0.4860407296 
ITERATION   1 : L=  179.4420876329 DL=  1.18e+01 (AVERGE_DL)=    0.2370753838 
ITERATION   2 : L=  179.9273095122 DL=  4.85e-01 (AVERGE_DL)=    0.0480684967 
ITERATION   3 : L=  180.3826232906 DL=  4.55e-01 (AVERGE_DL)=    0.0465635141 
ITERATION   4 : L=  180.8050184480 DL=  4.22e-01 (AVERGE_DL)=    0.0448486958 
ITERATION   5 : L=  180.9607102060 DL=  1.56e-01 (AVERGE_DL)=    0.0272284653 
ITERATION   6 : L=  181.0024393158 DL=  4.17e-02 (AVERGE_DL)=    0.0140964551 
ITERATION   7 : L=  181.0128072609 DL=  1.04e-02 (AVERGE_DL)=    0.0070264619 
ITERATION   8 : L=  181.0153977994 DL=  2.59e-03 (AVERGE_DL)=    0.0035122497 
ITERATION   9 : L=  181.0160559005 DL=  6.58e-04 (AVERGE_DL)=    0.0017702584 
ITERATION  10 : L=  181.0162248481 DL=  1.69e-04 (AVERGE_DL)=    0.0008969461 
ITERATION  11 : L=  181.0162684703 DL=  4.36e-05 (AVERGE_DL)=    0.0004557685 
ITERATION  12 : L=  181.0162797701 DL=  1.13e-05 (AVERGE_DL)=    0.0002319666 
ITERATION  13 : L=  181.0162827022 DL=  2.93e-06 (AVERGE_DL)=    0.0001181624 
ITERATION  14 : L=  181.0162834635 DL=  7.61e-07 (AVERGE_DL)=    0.0000602094 
LOCALIZATION SUM CONVERGED

------------------------------------------------------
AUGMENTED HESSIAN OPTIMIZATION OF FOSTER-BOYS ORBITALS
------------------------------------------------------

Spin operator:           0
Orbital window:          0 to 20
Number of iterations:    128
Gradient tolerance:      1.000e-06
Number of pairs:         210
Davidson threshold:      2000
Diagonalization method:  LAPACK
Iter:    0   L: 181.0162834635   Grad. norm: 3.284962e-03
   *** Likely close to a maximum now. ***
       Augmented Hessian eigenvalues:  5.45e-07 -2.66e+00 -3.26e+00 -3.26e+00 ... 
Iter:    1   L: 181.0162837362   Grad. norm: 2.028824e-07
LOCALIZATION HAS CONVERGED.

Eigenvalues of the Hessian:
  0 -2.663e+00
  1 -3.260e+00
  2 -3.260e+00
  3 -6.411e+00
  4 -6.411e+00
  5 -6.411e+00
  6 -6.411e+00
  7 -6.411e+00
  8 -6.411e+00
  9 -7.245e+00
    ...


------------------------------------------------------------------------------- 
                    LOCALIZED MOLECULAR ORBITAL COMPOSITIONS                   
------------------------------------------------------------------------------- 

The Mulliken populations for each LMO on each atom are computed
The LMO`s will be ordered according to atom index and type
  (A) Strongly localized MO`s have populations of >=0.950 on one atom
  (B) Two center bond orbitals have populations of >=0.850 on two atoms
  (C) Other MO`s are considered to be `delocalized`

FOUND  -   6 strongly local MO`s
       -  15 two center bond MO`s
       -   0 significantly delocalized MO`s

Rather strongly localized orbitals:
MO   5:   5C  -   1.003203
MO   4:   4C  -   1.003203
MO   3:   3C  -   1.003206
MO   2:   2C  -   1.003203
MO   1:   1C  -   1.003203
MO   0:   0C  -   1.003206
Bond-like localized orbitals:
MO  20:  11H  -   0.452134  and   5C  -   0.571633
MO  19:  10H  -   0.452129  and   4C  -   0.571635
MO  18:   9H  -   0.452136  and   3C  -   0.571534
MO  17:   8H  -   0.452132  and   2C  -   0.571639
MO  16:   7H  -   0.452135  and   1C  -   0.571633
MO  15:   6H  -   0.452126  and   0C  -   0.571528
MO  14:   5C  -   0.514404  and   4C  -   0.514402
MO  13:   5C  -   0.463898  and   0C  -   0.464026
MO  12:   5C  -   0.463899  and   0C  -   0.464025
MO  11:   4C  -   0.463897  and   3C  -   0.464027
MO  10:   4C  -   0.463897  and   3C  -   0.464026
MO   9:   3C  -   0.514498  and   2C  -   0.514282
MO   8:   2C  -   0.463964  and   1C  -   0.463970
MO   7:   2C  -   0.463966  and   1C  -   0.463967
MO   6:   1C  -   0.514278  and   0C  -   0.514502
Localized MO's were stored in: benzene_lw1x_Compound_4.loc



Calculating differential overlap integrals ... ok
Threshold for domain construction in prescreening: TCutDOPre = 3.0e-02

--------------------------
ELECTRON PAIR PRESCREENING
--------------------------

Dipole-based pair screening          .... used

   TCutDOij = 1.000000e-05
   TCutPre  = 1.000000e-06
   .... Finished loop over pairs
Total time spent in the prescreening                  ...     0.034 sec
sum of pair energies estimated for screened out pairs ...       0.000000000000 Eh

---------------------------
MAP CONSTRUCTION THRESHOLDS
---------------------------
    TCutMKN     ...     1.0e-03
    TCutDO      ...     5.0e-03
    TCutC(MO)   ...     1.0e-03
    TCutC(PAO)  ...     1.0e-03

--------------------------------
LOCAL RI TRANSFORMATION (IAVPAO)
--------------------------------

Orbital window:       0 to 20
Number of PAOs:     342
Basis functions:    342 (126 shells)
Aux. functions:    1662 (450 shells)
Use SHARK:           on

Processing maps (0.0 sec)
Average map sizes:
   Aux shells -> MOs              21.0
   Aux shells -> PAOs            342.0
   MOs        -> AO shells       117.4
   PAOs       -> AO shells       126.0

Calculating integrals (0.4 sec, 91.087 MB)
Sorting integrals (0.3 sec, 91.068 MB)
Total time for the integral transformation: 0.8 sec

----------------------------
Local MP2 Energy Calculation
----------------------------
Number of orbital pairs included:    231
Truncation parameters:
    PAOOverlapThresh    =        1.000e-08
    TCutPNO             =        1.000e-09

Spin component scaling                      .... not used
MP2 energy scaling factor                   .... 1.000

Formation of semicanonical amplitudes.
 10% done.
 20% done.
 30% done.
 40% done.
 50% done.
 60% done.
 70% done.
 80% done.
 90% done.
100% done.

Finished the LMP2 guess in 2.4 sec.

Average number of PAOs per pair        342.0
Average number of nrPAOs per pair      321.0
Average number of PNOs per pair         99.6
Average number of AUX  per pair        1291.7

Semicanonical MP2 energy:                   -1.191722744672 Eh
Semicanonical MP2 energy in PNO basis:      -1.191668848176 Eh

Initial amplitudes guess done. Entering DLPNO-MP2 iteration loop:
   Max. no of iterations          ...  100
   Energy convergence tolerance   ...    1.0e-06 Eh
   Residual convergence tolerance ...    5.0e-06
   Fock matrix cutoff             ...    1.0e-05 Eh
   Max # vectors in DIIS          ...  7
   Start iteration of DIIS        ...  0
   Levelshift                     ...  2.000e-01 Eh
   Damping before turning on DIIS ...  5.000e-01
   Damping after turning on DIIS  ...  0.000e+00

                           *** Turning on DIIS ***
Iter=   0:  ECORR= -1.217838640623  DE=   2.6e-02 RMAX=   1.4e-02
Iter=   1:  ECORR= -1.234568434894  DE=   1.7e-02 RMAX=   4.9e-03
Iter=   2:  ECORR= -1.238809514861  DE=   4.2e-03 RMAX=   2.2e-03
Iter=   3:  ECORR= -1.239916801088  DE=   1.1e-03 RMAX=   8.5e-04
Iter=   4:  ECORR= -1.239992872194  DE=   7.6e-05 RMAX=   2.4e-04
Iter=   5:  ECORR= -1.239982944861  DE=   9.9e-06 RMAX=   5.5e-05
Iter=   6:  ECORR= -1.239980193368  DE=   2.8e-06 RMAX=   8.6e-06
Iter=   7:  ECORR= -1.239980757455  DE=   5.6e-07 RMAX=   1.1e-06 => CONVERGED

Finished the DLPNO-MP2 iterations in 27.2 sec.

LMP2 correlation energy (all non-screened pairs)      ...     -1.239980757455 Eh
Semicanonical PNO correction to energy                ...     -0.000053896497 Eh
Sum of pair energies estimated for screened out pairs ...      0.000000000000 Eh
                                                         -----------------------
Total:                                                ...     -1.240034653952 Eh

------------------------------------------------------
 DLPNO-MP2 CORRELATION ENERGY:      -1.240034653952 Eh
------------------------------------------------------

TIMINGS FOR DLPNO-MP2:
Localization                             ...        0.365 sec
Differential overlap integrals           ...        1.865 sec
Prescreening                             ...        0.270 sec
Map setup                                ...        0.005 sec
(ia|v) trafo                             ...        0.815 sec
Semicanonical amplitudes                 ...        1.776 sec
PNO construction                         ...        0.220 sec
DLPNO-MP2 iterations                     ...       27.211 sec
                                             ----------------
Total time                                         34.243 sec


---------------------------------------
MP2 TOTAL ENERGY:     -232.105756028 Eh
---------------------------------------

Maximum memory used throughout the entire MP2-calculation: 167.5 MB

-------------------------   --------------------
FINAL SINGLE POINT ENERGY      -232.105756027708
-------------------------   --------------------


                            ***************************************
                            *     ORCA property calculations      *
                            ***************************************


  WARNING: The energy has been calculated at the MP2 level but the densities
           used in the property calculations are still SCF densities
           MP2 response densities have not been calculated 
           use %mp2 Density relaxed end
           or  %mp2 Density unrelaxed end

                                    ---------------------
                                    Active property flags
                                    ---------------------
   (+) Dipole Moment


------------------------------------------------------------------------------
                       ORCA ELECTRIC PROPERTIES CALCULATION
------------------------------------------------------------------------------

Dipole Moment Calculation                       ... on
Quadrupole Moment Calculation                   ... off
Polarizability Calculation                      ... off
GBWName                                         ... benzene_lw1x_Compound_4.gbw
Electron density                                ... benzene_lw1x_Compound_4.scfp
The origin for moment calculation is the CENTER OF MASS  = ( 0.000000,  0.000000  0.000000)

-------------
DIPOLE MOMENT
-------------
                                X             Y             Z
Electronic contribution:      0.00000       0.00000       0.00000
Nuclear contribution   :      0.00000       0.00000       0.00000
                        -----------------------------------------
Total Dipole Moment    :      0.00000       0.00000       0.00000
                        -----------------------------------------
Magnitude (a.u.)       :      0.00000
Magnitude (Debye)      :      0.00000



--------------------
Rotational spectrum 
--------------------
 
Rotational constants in cm-1:     0.191043     0.191043     0.095521 
Rotational constants in MHz :  5727.313348  5727.312438  2863.656447 

 Dipole components along the rotational axes: 
x,y,z [a.u.] :     0.000000     0.000000     0.000000 
x,y,z [Debye]:     0.000001     0.000000     0.000001 

 

Timings for individual modules:

Sum of individual times         ...       53.284 sec (=   0.888 min)
GTO integral calculation        ...        3.018 sec (=   0.050 min)   5.7 %
Relativistic integrals          ...        2.868 sec (=   0.048 min)   5.4 %
SCF iterations                  ...       11.370 sec (=   0.189 min)  21.3 %
MP2 module                      ...       36.028 sec (=   0.600 min)  67.6 %
================================================================================

----- Orbital basis set information -----
Your calculation utilizes the basis: def2-SVP
   F. Weigend and R. Ahlrichs, Phys. Chem. Chem. Phys. 7, 3297 (2005).



----------------------------------------------------------------------------------------------
                                        COMPOUND BLOCK                                        
                                     SUMMARY OF VARIABLES                                     
----------------------------------------------------------------------------------------------

Variable Name                                           Value             Evaluation String
-------------                                           -----             -----------------
HF_DZ                                    |            -230.78622283    |  
EC_DZ                                    |              -1.04430153    |  
CC_DZ                                    |              -1.00787562    |  EC_DZ-T_DZ
T_DZ                                     |              -0.03642591    |  
HF_TZ                                    |            -230.79363572    |  
EC_TZ                                    |              -1.08718877    |  
CC_TZ                                    |              -1.03559180    |  EC_TZ-T_TZ
T_TZ                                     |              -0.05159696    |  
HF_CBS                                   |            -230.79475995    |  HF_TZ-(HF_TZ-HF_DZ)*3^-5/(3^-5-2^-5)
CC_CBS                                   |              -1.04034151    |  CC_TZ-(CC_TZ-CC_DZ)*3^-4.7405/(3^-4.7405-2^-4.7405)
T_CBS                                    |              -0.06298975    |  T_TZ-(T_TZ-T_DZ)*3^-2.0879/(3^-2.0879-2^-2.0879)
MP_FC                                    |            -231.74460342    |  
MP_FU                                    |            -232.10575603    |  
MP_CV                                    |              -0.36115261    |  MP_FU-MP_FC
LW1X                                     |            -232.25924382    |  HF_CBS+CC_CBS+T_CBS+MP_CV
                             ****ORCA TERMINATED NORMALLY****
TOTAL RUN TIME: 0 days 0 hours 34 minutes 13 seconds 176 msec
