
                                 *****************
                                 * O   R   C   A *
                                 *****************

                                            #,                                       
                                            ###                                      
                                            ####                                     
                                            #####                                    
                                            ######                                   
                                           ########,                                 
                                     ,,################,,,,,                         
                               ,,#################################,,                 
                          ,,##########################################,,             
                       ,#########################################, ''#####,          
                    ,#############################################,,   '####,        
                  ,##################################################,,,,####,       
                ,###########''''           ''''###############################       
              ,#####''   ,,,,##########,,,,          '''####'''          '####       
            ,##' ,,,,###########################,,,                        '##       
           ' ,,###''''                  '''############,,,                           
         ,,##''                                '''############,,,,        ,,,,,,###''
      ,#''                                            '''#######################'''  
     '                                                          ''''####''''         
             ,#######,   #######,   ,#######,      ##                                
            ,#'     '#,  ##    ##  ,#'     '#,    #''#        ######   ,####,        
            ##       ##  ##   ,#'  ##            #'  '#       #        #'  '#        
            ##       ##  #######   ##           ,######,      #####,   #    #        
            '#,     ,#'  ##    ##  '#,     ,#' ,#      #,         ##   #,  ,#        
             '#######'   ##     ##  '#######'  #'      '#     #####' # '####'        



                  #######################################################
                  #                        -***-                        #
                  #          Department of theory and spectroscopy      #
                  #    Directorship and core code : Frank Neese         #
                  #        Max Planck Institute fuer Kohlenforschung    #
                  #                Kaiser Wilhelm Platz 1               #
                  #                 D-45470 Muelheim/Ruhr               #
                  #                      Germany                        #
                  #                                                     #
                  #                  All rights reserved                #
                  #                        -***-                        #
                  #######################################################


                         Program Version 5.0.1 -  RELEASE  -


 With contributions from (in alphabetic order):
   Daniel Aravena         : Magnetic Suceptibility
   Michael Atanasov       : Ab Initio Ligand Field Theory (pilot matlab implementation)
   Alexander A. Auer      : GIAO ZORA, VPT2 properties, NMR spectrum
   Ute Becker             : Parallelization
   Giovanni Bistoni       : ED, misc. LED, open-shell LED, HFLD
   Martin Brehm           : Molecular dynamics
   Dmytro Bykov           : SCF Hessian
   Vijay G. Chilkuri      : MRCI spin determinant printing, contributions to CSF-ICE
   Dipayan Datta          : RHF DLPNO-CCSD density
   Achintya Kumar Dutta   : EOM-CC, STEOM-CC
   Dmitry Ganyushin       : Spin-Orbit,Spin-Spin,Magnetic field MRCI
   Miquel Garcia          : C-PCM and meta-GGA Hessian, CC/C-PCM, Gaussian charge scheme
   Yang Guo               : DLPNO-NEVPT2, F12-NEVPT2, CIM, IAO-localization
   Andreas Hansen         : Spin unrestricted coupled pair/coupled cluster methods
   Benjamin Helmich-Paris : MC-RPA, TRAH-SCF, COSX integrals
   Lee Huntington         : MR-EOM, pCC
   Robert Izsak           : Overlap fitted RIJCOSX, COSX-SCS-MP3, EOM
   Marcus Kettner         : VPT2
   Christian Kollmar      : KDIIS, OOCD, Brueckner-CCSD(T), CCSD density, CASPT2, CASPT2-K
   Simone Kossmann        : Meta GGA functionals, TD-DFT gradient, OOMP2, MP2 Hessian
   Martin Krupicka        : Initial AUTO-CI
   Lucas Lang             : DCDCAS
   Marvin Lechner         : AUTO-CI (C++ implementation), FIC-MRCC
   Dagmar Lenk            : GEPOL surface, SMD
   Dimitrios Liakos       : Extrapolation schemes; Compound Job, initial MDCI parallelization
   Dimitrios Manganas     : Further ROCIS development; embedding schemes
   Dimitrios Pantazis     : SARC Basis sets
   Anastasios Papadopoulos: AUTO-CI, single reference methods and gradients
   Taras Petrenko         : DFT Hessian,TD-DFT gradient, ASA, ECA, R-Raman, ABS, FL, XAS/XES, NRVS
   Peter Pinski           : DLPNO-MP2, DLPNO-MP2 Gradient
   Christoph Reimann      : Effective Core Potentials
   Marius Retegan         : Local ZFS, SOC
   Christoph Riplinger    : Optimizer, TS searches, QM/MM, DLPNO-CCSD(T), (RO)-DLPNO pert. Triples
   Tobias Risthaus        : Range-separated hybrids, TD-DFT gradient, RPA, STAB
   Michael Roemelt        : Original ROCIS implementation
   Masaaki Saitow         : Open-shell DLPNO-CCSD energy and density
   Barbara Sandhoefer     : DKH picture change effects
   Avijit Sen             : IP-ROCIS
   Kantharuban Sivalingam : CASSCF convergence, NEVPT2, FIC-MRCI
   Bernardo de Souza      : ESD, SOC TD-DFT
   Georgi Stoychev        : AutoAux, RI-MP2 NMR, DLPNO-MP2 response
   Willem Van den Heuvel  : Paramagnetic NMR
   Boris Wezisla          : Elementary symmetry handling
   Frank Wennmohs         : Technical directorship


 We gratefully acknowledge several colleagues who have allowed us to
 interface, adapt or use parts of their codes:
   Stefan Grimme, W. Hujo, H. Kruse, P. Pracht,  : VdW corrections, initial TS optimization,
                  C. Bannwarth, S. Ehlert          DFT functionals, gCP, sTDA/sTD-DF
   Ed Valeev, F. Pavosevic, A. Kumar             : LibInt (2-el integral package), F12 methods
   Garnet Chan, S. Sharma, J. Yang, R. Olivares  : DMRG
   Ulf Ekstrom                                   : XCFun DFT Library
   Mihaly Kallay                                 : mrcc  (arbitrary order and MRCC methods)
   Jiri Pittner, Ondrej Demel                    : Mk-CCSD
   Frank Weinhold                                : gennbo (NPA and NBO analysis)
   Christopher J. Cramer and Donald G. Truhlar   : smd solvation model
   Lars Goerigk                                  : TD-DFT with DH, B97 family of functionals
   V. Asgeirsson, H. Jonsson                     : NEB implementation
   FAccTs GmbH                                   : IRC, NEB, NEB-TS, DLPNO-Multilevel, CI-OPT
                                                   MM, QMMM, 2- and 3-layer-ONIOM, Crystal-QMMM,
                                                   LR-CPCM, SF, NACMEs, symmetry and pop. for TD-DFT,
                                                   nearIR, NL-DFT gradient (VV10), updates on ESD,
                                                   ML-optimized integration grids
   S Lehtola, MJT Oliveira, MAL Marques          : LibXC Library
   Liviu Ungur et al                             : ANISO software


 Your calculation uses the libint2 library for the computation of 2-el integrals
 For citations please refer to: http://libint.valeyev.net

 Your ORCA version has been built with support for libXC version: 5.1.0
 For citations please refer to: https://tddft.org/programs/libxc/

 This ORCA versions uses:
   CBLAS   interface :  Fast vector & matrix operations
   LAPACKE interface :  Fast linear algebra routines
   SCALAPACK package :  Parallel linear algebra routines
   Shared memory     :  Shared parallel matrices
   BLAS/LAPACK       :  OpenBLAS 0.3.15  USE64BITINT DYNAMIC_ARCH NO_AFFINITY SkylakeX SINGLE_THREADED
        Core in use  :  SkylakeX
   Copyright (c) 2011-2014, The OpenBLAS Project




################################################################################


                                COMPOUND JOB MainJOB 
Basename: benzene_lw1x-no-diffuse-on-c_Compound_0

################################################################################

================================================================================
                                       INPUT FILE
================================================================================
NAME = benzene_lw1x-no-diffuse-on-c_Compound_0.inp
|  1> %Maxcore 2000
|  2>  %Pal nprocs 30 End
|  3>  
|  4>  * xyz 0 1
|  5>  C       -0.000000    1.391243    0.000000 
|  6>  C       -1.204852    0.695622    0.000000 
|  7>  C       -1.204852   -0.695622    0.000000 
|  8>  C        0.000000   -1.391243    0.000000 
|  9>  C        1.204852   -0.695622    0.000000 
| 10>  C        1.204852    0.695622    0.000000 
| 11>  H       -0.000000    2.473155    0.000000 
| 12>  H       -2.141815    1.236578    0.000000 
| 13>  H       -2.141815   -1.236578    0.000000 
| 14>  H        0.000000   -2.473155    0.000000 
| 15>  H        2.141815   -1.236578    0.000000 
| 16>  H        2.141815    1.236578    0.000000 
| 17>  *
| 18>  
| 19> 
| 20>                          ****END OF INPUT****
================================================================================
================================================================================

----- Orbital basis set information -----
Your calculation utilizes the basis: def2-SVP
   F. Weigend and R. Ahlrichs, Phys. Chem. Chem. Phys. 7, 3297 (2005).



################################################################################


                                COMPOUND JOB  1 
Basename: benzene_lw1x-no-diffuse-on-c_Compound_1
NOTE: please remember that MaxCore and PAL settings will be ignored.

################################################################################

================================================================================
                                       INPUT FILE
================================================================================
NAME = benzene_lw1x-no-diffuse-on-c_Compound_1.inp
|  1>     ! DefGrid3 RIJCOSX TightPNO DLPNO-CCSD(T1)-F12 MiniPrint NoPop
|  2>     %Basis
|  3>       Basis        "maug-cc-pV(D+d)Z"
|  4>       AuxJ         "AutoAux"
|  5>       AuxC         "AutoAux"
|  6>       CABS         "AutoAux"
|  7>       NewGTO     C "cc-pVDZ" End
|  8>       NewAuxjGTO C "AutoAux" End
|  9>       NewAuxcGTO C "AutoAux" End
| 10>       NewCabsGTO C "AutoAux" End
| 11>     End
| 12> 
| 13>                          ****END OF INPUT****
================================================================================
Warning! AutoAux has not been tested for CABS - use at your own risk!
================================================================================

----- Orbital basis set information -----
Your calculation utilizes the basis: jun-cc-pV(D+d)Z 
  E. Papajak, D. G. Truhlar, J. Chem. Theory Comput. 7, 10-18 (2011).

The basis set includes element-specific modifications.

Your calculation utilizes the basis: cc-pVDZ 
       H, B-Ne : Obtained from the ccRepo (grant-hill.group.shef.ac.uk/ccrepo) Feb. 2017
                 T. H. Dunning, Jr., J. Chem. Phys. 90, 1007 (1989)
            He : Obtained from the ccRepo (grant-hill.group.shef.ac.uk/ccrepo) Feb. 2017
                 D. E. Woon, T. H. Dunning, Jr., J. Chem. Phys. 100, 2975 (1994)
  Li-Be, Na-Mg : Obtained from the ccRepo (grant-hill.group.shef.ac.uk/ccrepo) Feb. 2017
                 B. P. Prascher, D. E. Woon, K. A. Peterson, T. H. Dunning, Jr., A. K. Wilson, Theor. Chem. Acc. 128, 69 (2011)
         Al-Ar : Obtained from the ccRepo (grant-hill.group.shef.ac.uk/ccrepo) Feb. 2017
                 D. E. Woon, T. H. Dunning, Jr., J. Chem. Phys. 98, 1358 (1993)
            Ca : Obtained from the Peterson Research Group Website (tyr0.chem.wsu.edu/~kipeters) Feb. 2017
                 J. Koput, K. A. Peterson, J. Phys. Chem. 106, 9595 (2002)
         Sc-Zn : Obtained from the ccRepo (grant-hill.group.shef.ac.uk/ccrepo) Feb. 2017
                 N. B. Balabanov, K. A. Peterson, J. Chem. Phys. 123, 064107 (2005)
                 N. B. Balabanov, K. A. Peterson, J. Chem. Phys. 125, 074110 (2006)
         Ga-Kr : Obtained from the ccRepo (grant-hill.group.shef.ac.uk/ccrepo) Feb. 2017
                 A. K. Wilson, D. E. Woon, K. A. Peterson, T. H. Dunning, Jr., J. Chem. Phys. 110, 7667 (1999)

----- AuxJ basis set information -----
Your calculation utilizes the AutoAux generation procedure.
  G. L. Stoychev, A. A. Auer, F. Neese, J. Chem. Theory Comput. 13, 554 (2017)

The basis set includes element-specific modifications.

----- AuxC basis set information -----
Your calculation utilizes the AutoAux generation procedure.
  G. L. Stoychev, A. A. Auer, F. Neese, J. Chem. Theory Comput. 13, 554 (2017)

The basis set includes element-specific modifications.

----- CABS information -----
Your calculation utilizes the AutoAux generation procedure.
  G. L. Stoychev, A. A. Auer, F. Neese, J. Chem. Theory Comput. 13, 554 (2017)

The basis set includes element-specific modifications.


                    <<< The CABS basis set will be decontracted >>>

================================================================================
                                        WARNINGS
                       Please study these warnings very carefully!
================================================================================


WARNING: Post HF methods need fully converged wavefunctions
  ===> : Setting SCFConvForced true
         You can overwrite this default with %scf ConvForced false 


WARNING: MDCI localization with Augmented Hessian Foster-Boys
  ===> : Switching off randomization!

INFO   : the flag for use of the SHARK integral package has been found!


                       ****************************
                       * Single Point Calculation *
                       ****************************

---------------------------------
CARTESIAN COORDINATES (ANGSTROEM)
---------------------------------
  C     -0.000000    1.391243    0.000000
  C     -1.204852    0.695622    0.000000
  C     -1.204852   -0.695622    0.000000
  C      0.000000   -1.391243    0.000000
  C      1.204852   -0.695622    0.000000
  C      1.204852    0.695622    0.000000
  H     -0.000000    2.473155    0.000000
  H     -2.141815    1.236578    0.000000
  H     -2.141815   -1.236578    0.000000
  H      0.000000   -2.473155    0.000000
  H      2.141815   -1.236578    0.000000
  H      2.141815    1.236578    0.000000

----------------------------
CARTESIAN COORDINATES (A.U.)
----------------------------
  NO LB      ZA    FRAG     MASS         X           Y           Z
   0 C     6.0000    0    12.011   -0.000000    2.629068    0.000000
   1 C     6.0000    0    12.011   -2.276840    1.314535    0.000000
   2 C     6.0000    0    12.011   -2.276840   -1.314535    0.000000
   3 C     6.0000    0    12.011    0.000000   -2.629068    0.000000
   4 C     6.0000    0    12.011    2.276840   -1.314535    0.000000
   5 C     6.0000    0    12.011    2.276840    1.314535    0.000000
   6 H     1.0000    0     1.008   -0.000000    4.673586    0.000000
   7 H     1.0000    0     1.008   -4.047444    2.336794    0.000000
   8 H     1.0000    0     1.008   -4.047444   -2.336794    0.000000
   9 H     1.0000    0     1.008    0.000000   -4.673586    0.000000
  10 H     1.0000    0     1.008    4.047444   -2.336794    0.000000
  11 H     1.0000    0     1.008    4.047444    2.336794    0.000000



           ************************************************************
           *        Program running with 30 parallel MPI-processes    *
           *              working on a common directory               *
           ************************************************************
------------------------------------------------------------------------------
                   ___                                                        
                  /   \      - P O W E R E D   B Y -                         
                 /     \                                                     
                 |  |  |   _    _      __       _____    __    __             
                 |  |  |  | |  | |    /  \     |  _  \  |  |  /  |          
                  \  \/   | |  | |   /    \    | | | |  |  | /  /          
                 / \  \   | |__| |  /  /\  \   | |_| |  |  |/  /          
                |  |  |   |  __  | /  /__\  \  |    /   |      \           
                |  |  |   | |  | | |   __   |  |    \   |  |\   \          
                \     /   | |  | | |  |  |  |  | |\  \  |  | \   \       
                 \___/    |_|  |_| |__|  |__|  |_| \__\ |__|  \__/        
                                                                              
                      - O R C A' S   B I G   F R I E N D -                    
                                      &                                       
                       - I N T E G R A L  F E E D E R -                       
                                                                              
 v1 FN, 2020, v2 2021                                                         
------------------------------------------------------------------------------


Reading SHARK input file benzene_lw1x-no-diffuse-on-c_Compound_1.SHARKINP.tmp ... ok
----------------------
SHARK INTEGRAL PACKAGE
----------------------

Number of atoms                             ...     12
Number of basis functions                   ...    114
Number of shells                            ...     54
Maximum angular momentum                    ...      2
Integral batch strategy                     ... SHARK/LIBINT Hybrid
RI-J (if used) integral strategy            ... SPLIT-RIJ (Revised 2003 algorithm where possible)
Printlevel                                  ...      1
Contraction scheme used                     ... SEGMENTED contraction
Coulomb Range Separation                    ... NOT USED
Exchange Range Separation                   ... NOT USED
Finite Nucleus Model                        ... NOT USED
Auxiliary Coulomb fitting basis             ... AVAILABLE
   # of basis functions in Aux-J            ...    786
   # of shells in Aux-J                     ...    294
   Maximum angular momentum in Aux-J        ...      3
Auxiliary J/K fitting basis                 ... NOT available
Auxiliary Correlation fitting basis         ... AVAILABLE
   # of basis functions in Aux-C            ...    786
   # of shells in Aux-C                     ...    294
   Maximum angular momentum in Aux-C        ...      3
Auxiliary 'external' fitting basis          ... NOT available
Integral threshold                          ...     1.000000e-10
Primitive cut-off                           ...     1.000000e-11
Primitive pair pre-selection threshold      ...     1.000000e-11

Calculating pre-screening integrals         ... done (  0.1 sec) Dimension = 54
Organizing shell pair data                  ... done (  0.0 sec)
Shell pair information
Total number of shell pairs                 ...      1485
Shell pairs after pre-screening             ...      1482
Total number of primitive shell pairs       ...     13575
Primitive shell pairs kept                  ...      9003
          la=0 lb=0:    465 shell pairs
          la=1 lb=0:    540 shell pairs
          la=1 lb=1:    168 shell pairs
          la=2 lb=0:    180 shell pairs
          la=2 lb=1:    108 shell pairs
          la=2 lb=2:     21 shell pairs

Calculating one electron integrals          ... done (  0.0 sec)
Calculating RI/J V-Matrix + Cholesky decomp.... done (  0.1 sec)
Calculating RI/C V-Matrix + Cholesky decomp.... done (  0.1 sec)
Calculating Nuclear repulsion               ... done (  0.0 sec) ENN=    203.997485770322 Eh

SHARK setup successfully completed in   0.6 seconds

Maximum memory used throughout the entire GTOINT-calculation: 12.5 MB


           ************************************************************
           *        Program running with 30 parallel MPI-processes    *
           *              working on a common directory               *
           ************************************************************

Diagonalization of the overlap matrix:
Smallest eigenvalue                        ... 3.544e-04
Time for diagonalization                   ...    0.017 sec
Threshold for overlap eigenvalues          ... 1.000e-08
Number of eigenvalues below threshold      ... 0
Time for construction of square roots      ...    0.019 sec
Total time needed                          ...    0.038 sec

Time for model grid setup =    0.130 sec

Loading Hartree-Fock densities                     ... done
Calculating cut-offs                               ... done
Initializing the effective Hamiltonian             ... done
Setting up the integral package (SHARK)            ... done
Starting the Coulomb interaction                   ... done (   0.1 sec)
Reading the grid                                   ... done
Mapping shells                                     ... done
Starting the XC term evaluation                    ... done (   0.0 sec)
Transforming the Hamiltonian                       ... done (   0.0 sec)
Diagonalizing the Hamiltonian                      ... done (   0.0 sec)
Back transforming the eigenvectors                 ... done (   0.0 sec)
Now organizing SCF variables                       ... done
--------------------
COSX GRID GENERATION
--------------------

GRIDX 1
-------
General Integration Accuracy     IntAcc      ... 4.020
Radial Grid Type                 RadialGrid  ... OptM3 with GC (2021)
Angular Grid (max. ang.)         AngularGrid ... 2 (Lebedev-110)
Angular grid pruning method      GridPruning ... 4 (adaptive)
Weight generation scheme         WeightScheme... Becke
Basis function cutoff            BFCut       ... 1.0000e-10
Integration weight cutoff        WCut        ... 1.0000e-14
Angular grids for H and He will be reduced by one unit
Partially contracted basis set               ... on
Rotationally invariant grid construction     ... off

Total number of grid points                  ...    15456
Total number of batches                      ...      246
Average number of points per batch           ...       62
Average number of grid points per atom       ...     1288
UseSFitting                                  ... on

GRIDX 2
-------
General Integration Accuracy     IntAcc      ... 4.338
Radial Grid Type                 RadialGrid  ... OptM3 with GC (2021)
Angular Grid (max. ang.)         AngularGrid ... 3 (Lebedev-194)
Angular grid pruning method      GridPruning ... 4 (adaptive)
Weight generation scheme         WeightScheme... Becke
Basis function cutoff            BFCut       ... 1.0000e-10
Integration weight cutoff        WCut        ... 1.0000e-14
Angular grids for H and He will be reduced by one unit
Partially contracted basis set               ... on
Rotationally invariant grid construction     ... off

Total number of grid points                  ...    34018
Total number of batches                      ...      536
Average number of points per batch           ...       63
Average number of grid points per atom       ...     2835
UseSFitting                                  ... on

GRIDX 3
-------
General Integration Accuracy     IntAcc      ... 4.871
Radial Grid Type                 RadialGrid  ... OptM3 with GC (2021)
Angular Grid (max. ang.)         AngularGrid ... 4 (Lebedev-302)
Angular grid pruning method      GridPruning ... 4 (adaptive)
Weight generation scheme         WeightScheme... Becke
Basis function cutoff            BFCut       ... 1.0000e-10
Integration weight cutoff        WCut        ... 1.0000e-14
Angular grids for H and He will be reduced by one unit
Partially contracted basis set               ... on
Rotationally invariant grid construction     ... off

Total number of grid points                  ...    65260
Total number of batches                      ...     1028
Average number of points per batch           ...       63
Average number of grid points per atom       ...     5438
UseSFitting                                  ... on

Time for X-Grid setup             =    0.941 sec

 re-compute Schwartz prescreening matrix in partically contracted basis (1) ...done (   0.099 sec)
--------------
SCF ITERATIONS
--------------
ITER       Energy         Delta-E        Max-DP      RMS-DP      [F,P]     Damp
               ***  Starting incremental Fock matrix formation  ***
  0   -230.4955577718   0.000000000000 0.03892571  0.00270027  0.1617227 0.7000
  1   -230.5732945959  -0.077736824083 0.03013929  0.00217380  0.1077264 0.7000
                               ***Turning on DIIS***
  2   -230.6217374157  -0.048442819830 0.06541308  0.00502630  0.0657142 0.0000
  3   -230.2359773568   0.385760058914 0.01044966  0.00073063  0.0265702 0.0000
  4   -230.7029114003  -0.466934043480 0.00278793  0.00028270  0.0046051 0.0000
                      *** Initiating the SOSCF procedure ***
                           *** Shutting down DIIS ***
                      *** Re-Reading the Fockian *** 
                      *** Removing any level shift *** 
ITER      Energy       Delta-E        Grad      Rot      Max-DP    RMS-DP
  5   -230.71940870  -0.0164973002  0.001945  0.001945  0.001583  0.000132
               *** Restarting incremental Fock matrix formation ***
  6   -230.72235935  -0.0029506455  0.000442  0.000379  0.000632  0.000047
  7   -230.72236143  -0.0000020868  0.000123  0.000152  0.000241  0.000018
                 **** Energy Check signals convergence ****
              ***Rediagonalizing the Fockian in SOSCF/NRSCF***

               *****************************************************
               *                     SUCCESS                       *
               *           SCF CONVERGED AFTER   8 CYCLES          *
               *****************************************************

Old exchange energy                            =    -33.272338690 Eh
New exchange energy                            =    -33.272342775 Eh
Exchange energy change after final integration =     -0.000004085 Eh
Total energy after final integration           =   -230.722365783 Eh
Final COS-X integration done in                =     0.335 sec
Total Energy       :         -230.72236578 Eh           -6278.27475 eV
  Last Energy change         ...   -2.6497e-07  Tolerance :   1.0000e-06
  Last MAX-Density change    ...    4.8850e-15  Tolerance :   1.0000e-05
             **** THE GBW FILE WAS UPDATED (benzene_lw1x-no-diffuse-on-c_Compound_1.gbw) ****
             **** DENSITY benzene_lw1x-no-diffuse-on-c_Compound_1.scfp WAS UPDATED ****
             **** ENERGY FILE WAS UPDATED (benzene_lw1x-no-diffuse-on-c_Compound_1.en.tmp) ****
             **** THE GBW FILE WAS UPDATED (benzene_lw1x-no-diffuse-on-c_Compound_1.gbw) ****
             **** DENSITY benzene_lw1x-no-diffuse-on-c_Compound_1.scfp WAS UPDATED ****
----------------
ORBITAL ENERGIES
----------------

  NO   OCC          E(Eh)            E(eV) 
   0   2.0000     -11.237762      -305.7950 
   1   2.0000     -11.237199      -305.7797 
   2   2.0000     -11.237197      -305.7797 
   3   2.0000     -11.235984      -305.7467 
   4   2.0000     -11.235983      -305.7466 
   5   2.0000     -11.235392      -305.7306 
   6   2.0000      -1.150304       -31.3014 
   7   2.0000      -1.014099       -27.5950 
   8   2.0000      -1.014096       -27.5950 
   9   2.0000      -0.822254       -22.3747 
  10   2.0000      -0.822253       -22.3746 
  11   2.0000      -0.706952       -19.2371 
  12   2.0000      -0.640788       -17.4367 
  13   2.0000      -0.616380       -16.7725 
  14   2.0000      -0.585127       -15.9221 
  15   2.0000      -0.585125       -15.9221 
  16   2.0000      -0.500390       -13.6163 
  17   2.0000      -0.490922       -13.3587 
  18   2.0000      -0.490919       -13.3586 
  19   2.0000      -0.334146        -9.0926 
  20   2.0000      -0.334140        -9.0924 
  21   0.0000       0.138205         3.7607 
  22   0.0000       0.138206         3.7608 
  23   0.0000       0.182695         4.9714 
  24   0.0000       0.220173         5.9912 
  25   0.0000       0.220183         5.9915 
  26   0.0000       0.256210         6.9718 
  27   0.0000       0.256210         6.9718 
  28   0.0000       0.273326         7.4376 
  29   0.0000       0.352649         9.5961 
  30   0.0000       0.438603        11.9350 
  31   0.0000       0.438607        11.9351 
  32   0.0000       0.471158        12.8209 
  33   0.0000       0.471172        12.8212 
  34   0.0000       0.584329        15.9004 
  35   0.0000       0.589955        16.0535 
  36   0.0000       0.676605        18.4114 
  37   0.0000       0.679845        18.4995 
  38   0.0000       0.712756        19.3951 
  39   0.0000       0.731213        19.8973 
  40   0.0000       0.731226        19.8977 
  41   0.0000       0.741379        20.1739 
  42   0.0000       0.741384        20.1741 
  43   0.0000       0.745402        20.2834 
  44   0.0000       0.745402        20.2834 
  45   0.0000       0.745590        20.2885 
  46   0.0000       0.823140        22.3988 
  47   0.0000       0.823153        22.3991 
  48   0.0000       0.853217        23.2172 
  49   0.0000       0.853223        23.2174 
  50   0.0000       0.890052        24.2195 
  51   0.0000       0.890060        24.2198 
  52   0.0000       0.911283        24.7973 
  53   0.0000       0.991194        26.9718 
  54   0.0000       0.998335        27.1661 
  55   0.0000       1.048160        28.5219 
  56   0.0000       1.107695        30.1419 
  57   0.0000       1.107700        30.1421 
  58   0.0000       1.129218        30.7276 
  59   0.0000       1.153198        31.3801 
  60   0.0000       1.204841        32.7854 
  61   0.0000       1.204855        32.7858 
  62   0.0000       1.246503        33.9191 
  63   0.0000       1.246512        33.9193 
  64   0.0000       1.247648        33.9502 
  65   0.0000       1.247684        33.9512 
  66   0.0000       1.316100        35.8129 
  67   0.0000       1.321751        35.9667 
  68   0.0000       1.321753        35.9667 
  69   0.0000       1.470950        40.0266 
  70   0.0000       1.516718        41.2720 
  71   0.0000       1.516722        41.2721 
  72   0.0000       1.720558        46.8188 
  73   0.0000       1.745477        47.4968 
  74   0.0000       1.745484        47.4970 
  75   0.0000       1.769378        48.1472 
  76   0.0000       1.816045        49.4171 
  77   0.0000       1.874107        50.9970 
  78   0.0000       1.874152        50.9983 
  79   0.0000       1.900591        51.7177 
  80   0.0000       1.901895        51.7532 
  81   0.0000       1.901914        51.7537 
  82   0.0000       1.953644        53.1614 
  83   0.0000       1.953644        53.1614 
  84   0.0000       1.965865        53.4939 
  85   0.0000       1.965886        53.4945 
  86   0.0000       1.966533        53.5121 
  87   0.0000       2.095008        57.0081 
  88   0.0000       2.095009        57.0081 
  89   0.0000       2.128450        57.9181 
  90   0.0000       2.151561        58.5470 
  91   0.0000       2.151590        58.5478 
  92   0.0000       2.169522        59.0357 
  93   0.0000       2.172717        59.1226 
  94   0.0000       2.172724        59.1228 
  95   0.0000       2.270301        61.7780 
  96   0.0000       2.270308        61.7782 
  97   0.0000       2.288060        62.2613 
  98   0.0000       2.288062        62.2613 
  99   0.0000       2.333926        63.5094 
 100   0.0000       2.505201        68.1700 
 101   0.0000       2.568695        69.8978 
 102   0.0000       2.712471        73.8101 
 103   0.0000       2.770821        75.3979 
 104   0.0000       2.770833        75.3982 
 105   0.0000       2.797178        76.1151 
 106   0.0000       2.797186        76.1153 
 107   0.0000       2.976542        80.9958 
 108   0.0000       2.976544        80.9959 
 109   0.0000       3.008921        81.8769 
 110   0.0000       3.144748        85.5730 
 111   0.0000       3.288365        89.4810 
 112   0.0000       3.288378        89.4813 
 113   0.0000       4.048842       110.1746 
Total SCF time: 0 days 0 hours 0 min 6 sec 

Maximum memory used throughout the entire SCF-calculation: 51.3 MB


           ************************************************************
           *        Program running with 30 parallel MPI-processes    *
           *              working on a common directory               *
           ************************************************************


------------------------------------------------------------------------------- 
                              ORCA-MATRIX DRIVEN CI                            
------------------------------------------------------------------------------- 


Wavefunction type
-----------------
Correlation treatment                      ...      CCSD     
Single excitations                         ... ON
Orbital optimization                       ... OFF
Calculation of Z vector                    ... OFF
Calculation of Brueckner orbitals          ... OFF
Perturbative triple excitations            ... ON
Calculation of F12 correction              ... ON
   Using RI for F12 correction             ... ON
   GSO occupation number cut-off           ... 0.000e+00
Frozen core treatment                      ... chemical core (12 el)
Reference Wavefunction                     ... RHF
  Internal Orbitals:     6 ...   20 ( 15 MO's/ 30 electrons)
  Virtual  Orbitals:    21 ...  113 ( 93 MO's              )
Number of AO's                             ...    114
Number of electrons                        ...     42
Number of correlated electrons             ...     30

Algorithmic settings
--------------------
Integral transformation                    ... All integrals via the RI transformation
K(C) Formation                             ... RI-DLPNO
   PNO-Integral Storage                    ... ON DISK
   PNO occupation number cut-off           ... 1.000e-07
   Singles PNO occupation number cut-off   ... 3.000e-09
   PNO Mulliken prescreening cut-off       ... 1.000e-03
   Domain cut-off (Mulliken population)    ... 1.000e-03
   PNO Normalization                       ...    1
Maximum number of iterations               ...        50
Convergence tolerance (max. residuum)      ... 2.500e-05
Level shift for amplitude update           ... 2.000e-01
Maximum number of DIIS vectors             ...         7
DIIS turned on at iteration                ...         0
Damping before turning on DIIS             ...     0.500
Damping after turning on DIIS              ...     0.000
Pair specific amplitude update             ... OFF
Natural orbital iterations                 ... OFF
Perturbative natural orbital generation    ... OFF
Printlevel                                 ... 2

Singles Fock matrix elements calculated using PNOs.

Memory handling:
----------------
Maximum memory for working arrays          ...   2000 MB
Data storage in matrix containers          ... UNCOMPRESSED
Data type for integral storage             ... DOUBLE
In-Core Storage of quantities:
   Amplitudes+Sigma Vector      ... NO
   J+K operators                ... NO
   DIIS vectors                 ... NO
   3-external integrals         ... NO
   4-external integrals         ... NO

Localization treatment:
-----------------------
Localization option                        ...    6
Localization threshhold                    ... -1.0e+00
Using relative localization threshhold     ... 1.0e-08
Neglect threshold for strong pairs         ... 1.000e-05 Eh
Prescreening threshold for very weak pairs ... 1.000e-07 Eh

Initializing the integral package          ... done
Localizing the valence orbitals
------------------------------------------------------------------------------
                           ORCA ORBITAL LOCALIZATION
------------------------------------------------------------------------------

Input orbitals are from                  ... benzene_lw1x-no-diffuse-on-c_Compound_1.gbw
Output orbitals are to                   ... benzene_lw1x-no-diffuse-on-c_Compound_1.loc
Max. number of iterations                ... 128
Localizations seeded randomly            ... off
Convergence tolerance                    ... 1.000e-06
Using relative localization threshhold   ... 1.000e-08
Treshold for strong local MOs            ... 9.500e-01
Treshold for bond MOs                    ... 8.500e-01
Operator                                 ... 0
Orbital range for localization           ... 6 to 20
Localization criterion                   ... FOSTER-BOYS (AUGMENTED HESSIAN)
Doing the dipole integrals     ... o.k.
Initial value of the localization sum :   126.120483
ITERATION   0 : L=  135.3416528015 DL=  9.22e+00 (AVERGE_DL)=    0.2963455229 
ITERATION   1 : L=  138.3050382727 DL=  2.96e+00 (AVERGE_DL)=    0.1679961868 
ITERATION   2 : L=  138.3079420248 DL=  2.90e-03 (AVERGE_DL)=    0.0052587814 
ITERATION   3 : L=  138.3079429974 DL=  9.73e-07 (AVERGE_DL)=    0.0000962482 
LOCALIZATION SUM CONVERGED

------------------------------------------------------
AUGMENTED HESSIAN OPTIMIZATION OF FOSTER-BOYS ORBITALS
------------------------------------------------------

Spin operator:           0
Orbital window:          6 to 20
Number of iterations:    128
Gradient tolerance:      1.000e-06
Number of pairs:         105
Davidson threshold:      2000
Diagonalization method:  LAPACK
Iter:    0   L: 138.3079429974   Grad. norm: 7.642763e-04
   *** Detected a saddle point. ***
       Augmented Hessian eigenvalues:  1.92e+00  7.06e-01  7.06e-01  4.99e-07 ... 
Iter:    1   L: 138.4869614033   Grad. norm: 6.880123e-01
Iter:    2   L: 139.0612114522   Grad. norm: 3.063798e+00
Iter:    3   L: 139.5541789514   Grad. norm: 1.376567e+00
Iter:    4   L: 139.6005795360   Grad. norm: 5.417942e-02
   *** Likely close to a maximum now. ***
       Augmented Hessian eigenvalues:  2.27e-04 -2.69e+00 -3.31e+00 -3.31e+00 ... 
Iter:    5   L: 139.6006929226   Grad. norm: 1.639093e-04
Iter:    6   L: 139.6006929232   Grad. norm: 7.526883e-10
LOCALIZATION HAS CONVERGED.

Eigenvalues of the Hessian:
  0 -2.690e+00
  1 -3.305e+00
  2 -3.305e+00
  3 -1.025e+01
  4 -1.092e+01
  5 -1.092e+01
  6 -1.382e+01
  7 -1.743e+01
  8 -1.771e+01
  9 -1.771e+01
    ...


------------------------------------------------------------------------------- 
                    LOCALIZED MOLECULAR ORBITAL COMPOSITIONS                   
------------------------------------------------------------------------------- 

The Mulliken populations for each LMO on each atom are computed
The LMO`s will be ordered according to atom index and type
  (A) Strongly localized MO`s have populations of >=0.950 on one atom
  (B) Two center bond orbitals have populations of >=0.850 on two atoms
  (C) Other MO`s are considered to be `delocalized`

FOUND  -   0 strongly local MO`s
       -  15 two center bond MO`s
       -   0 significantly delocalized MO`s

Bond-like localized orbitals:
MO  20:  11H  -   0.501378  and   5C  -   0.508896
MO  19:  10H  -   0.501378  and   4C  -   0.508896
MO  18:   9H  -   0.501336  and   3C  -   0.508982
MO  17:   8H  -   0.501378  and   2C  -   0.508895
MO  16:   7H  -   0.501377  and   1C  -   0.508895
MO  15:   6H  -   0.501336  and   0C  -   0.508982
MO  14:   5C  -   0.465716  and   4C  -   0.465716
MO  13:   5C  -   0.465716  and   4C  -   0.465716
MO  12:   5C  -   0.514297  and   0C  -   0.514238
MO  11:   4C  -   0.514298  and   3C  -   0.514238
MO  10:   3C  -   0.465709  and   2C  -   0.465733
MO   9:   3C  -   0.465709  and   2C  -   0.465733
MO   8:   2C  -   0.514262  and   1C  -   0.514262
MO   7:   1C  -   0.465733  and   0C  -   0.465709
MO   6:   1C  -   0.465733  and   0C  -   0.465709
Localized MO's were stored in: benzene_lw1x-no-diffuse-on-c_Compound_1.loc

Localizing the core orbitals
------------------------------------------------------------------------------
                           ORCA ORBITAL LOCALIZATION
------------------------------------------------------------------------------

Input orbitals are from                  ... benzene_lw1x-no-diffuse-on-c_Compound_1.loc
Output orbitals are to                   ... benzene_lw1x-no-diffuse-on-c_Compound_1.loc
Max. number of iterations                ... 128
Localizations seeded randomly            ... off
Convergence tolerance                    ... 1.000e-06
Using relative localization threshhold   ... 1.000e-08
Treshold for strong local MOs            ... 9.500e-01
Treshold for bond MOs                    ... 8.500e-01
Operator                                 ... 0
Orbital range for localization           ... 0 to 5
Localization criterion                   ... FOSTER-BOYS (AUGMENTED HESSIAN)
Doing the dipole integrals     ... o.k.
Initial value of the localization sum :    41.471930
ITERATION   0 : L=   41.4719405161 DL=  1.05e-05 (AVERGE_DL)=    0.0008352571 
ITERATION   1 : L=   41.4719405161 DL=  0.00e+00 (AVERGE_DL)=    0.0000000000 
LOCALIZATION SUM CONVERGED

------------------------------------------------------
AUGMENTED HESSIAN OPTIMIZATION OF FOSTER-BOYS ORBITALS
------------------------------------------------------

Spin operator:           0
Orbital window:          0 to 5
Number of iterations:    128
Gradient tolerance:      1.000e-06
Number of pairs:         15
Davidson threshold:      2000
Diagonalization method:  LAPACK
Iter:    0   L: 41.4719405161   Grad. norm: 1.000016e-05
   *** Likely close to a maximum now. ***
       Augmented Hessian eigenvalues:  1.20e-12 -2.76e+01 -2.76e+01 -2.76e+01 ... 
Iter:    1   L: 41.4719405161   Grad. norm: 5.606292e-19
LOCALIZATION HAS CONVERGED.

Eigenvalues of the Hessian:
  0 -2.765e+01
  1 -2.765e+01
  2 -2.765e+01
  3 -2.765e+01
  4 -2.765e+01
  5 -2.765e+01
  6 -8.294e+01
  7 -8.294e+01
  8 -8.294e+01
  9 -8.294e+01
    ...


------------------------------------------------------------------------------- 
                    LOCALIZED MOLECULAR ORBITAL COMPOSITIONS                   
------------------------------------------------------------------------------- 

The Mulliken populations for each LMO on each atom are computed
The LMO`s will be ordered according to atom index and type
  (A) Strongly localized MO`s have populations of >=0.950 on one atom
  (B) Two center bond orbitals have populations of >=0.850 on two atoms
  (C) Other MO`s are considered to be `delocalized`

FOUND  -   6 strongly local MO`s
       -   0 two center bond MO`s
       -   0 significantly delocalized MO`s

Rather strongly localized orbitals:
MO   5:   5C  -   0.999226
MO   4:   4C  -   0.999226
MO   3:   3C  -   0.999227
MO   2:   2C  -   0.999226
MO   1:   1C  -   0.999226
MO   0:   0C  -   0.999227
Localized MO's were stored in: benzene_lw1x-no-diffuse-on-c_Compound_1.loc

Warning: reference  - re-canonicalizations have been set to INT 1 VIRT 1
Warning: internal orbitals are localized - no re-canonicalization of internal orbitals
Warning: UsePNO is turned on - no re-canonicalization of internal and virtual orbitals

--------------------------
CLOSED-SHELL FOCK OPERATOR
--------------------------

Restoring SHARK [2] ... ok
Entering RIJCOSX section for the Fock matrix
Trying to retrieve the full J-matrix              ... done
Updating the Fock matrix                          ... done
Making the frozen core Coulomb matrix             ... SHARKdone
Retrieving the full K-matrix                      ... done
Calculating the frozen core K-matrix              ... done
Updating the Fock matrix                          ... done
Time needed for Fock operator              ...            2.341 sec
Reference energy                           ...   -230.722339812

------------------------------
Initializing F12 data
------------------------------

Mapping basis set                  ... done
Dimension of the orbital basis set  = 114
Dimension of the CABS basis set     = 786
Dimension of the AUX basis set      = 786
Threshold for CABS orthogonalization = 1.000e-08
Will use an exponential correlation factor -Exp(-gamma r12)/gamma (gamma= 1.200) fit to 6 Gaussians 
Correlation factor:   
  NGauss  :          6      
  Gaussian expansion: 
    a(0)=     0.275538291  d(0)=    -0.219608291 
    a(1)=     1.140545861  d(1)=    -0.254494187 
    a(2)=     3.958256986  d(2)=    -0.154545985 
    a(3)=    13.126859124  d(3)=    -0.093273119 
    a(4)=    49.287410844  d(4)=    -0.057916694 
    a(5)=   272.920095267  d(5)=    -0.035942168 
Calculating one-electron matrices                       ... done (      0.2 sec)
Calculating pre-screening matrices:                     ...
       .... 1/r12 done          (      0.8 sec)
       .... f12/r12 done        (      0.1 sec)
       .... f12 done            (      0.1 sec)
       .... f12^2 done          (      0.3 sec)
       .... [f12,[T1,f12]] done (      0.3 sec)
                                                        ... done (      1.6 sec)
Making CABS spaces                                      ... done (      0.2 sec)
Calculating 2-index 2-center F12 integrals              ... 
Two index explicit correlation integrals  op=0          ... done (      0.1 sec) 
Two index explicit correlation integrals  op=1          ... done (      0.1 sec) 
Two index explicit correlation integrals  op=2          ... done (      0.1 sec) 
Two index explicit correlation integrals  op=3          ... done (      0.1 sec) 
Two index explicit correlation integrals  op=4          ... done (      0.1 sec) 
                                                            done (      0.4 sec)

--------------
DLPNO SETTINGS (2015 fully linear scaling implementation)
--------------

TCutMKN:           1.000e-03
TCutPAO:           1.000e-03
TCutPNO:           1.000e-07
TCutPNOSingles:    3.000e-09
TCutEN:            9.700e-01
TCutPAOExt:        1.000e-01
TCutPairs:         1.000e-05
TCutPre:           1.000e-07
TCutOSV:           1.000e-06
TCutDOij:          1.000e-05
TCutDO:            5.000e-03
TCutC:             1.000e-04
TCutCPAO:          1.000e-03
TCutCMO:           1.000e-03
TScaleDOMP2PreScr: 2.000e+00
TScaleMKNMP2PreScr:1.000e+01
TScalePNOMP2PreScr:1.000e+00
PAO overlap thresh 1.000e-08
Using PNOs for Singles Fock computation
Use new domains
Use fully linear algorithm
TCutTNO:           1.000e-09
TCutMP2Pairs:      1.000e-06
TCutDOStrong:      2.000e-03
TCutMKNStrong:     1.000e-02
TCutMKNWeak:       1.000e-01
TCutDOWeak:        4.000e-03
NTCutTNO:          1

--------------------------
Mulliken population of the LMOs            ... ok
Performing proximity check                 ... No problems found
Calculating differential overlap integrals ... ok

--------------------------
ELECTRON PAIR PRESCREENING
--------------------------

Dipole-based pair screening          .... used

   TCutDOij = 1.000000e-05
   TCutPre  = 1.000000e-07
   .... Finished loop over pairs
Total time spent in the prescreening                  ...     0.024 sec
sum of pair energies estimated for screened out pairs ...       0.000000000000 Eh
Thresholds for map construction and integral transformation for crude MP2:
   TCutMKN                    ...     1.0e-02
   TCutDO                     ...     1.0e-02
   TCutPairs                  ...     1.0e-05
   TCutPNO_CrudeMP2           ...     1.0e-07
   TCutPNOSingles_CrudeMP2    ...     3.0e-09
--------------------------------
LOCAL RI TRANSFORMATION (IAVPAO)
--------------------------------

Orbital window:       6 to 20
Number of PAOs:     114
Basis functions:    114 (54 shells)
Aux. functions:     786 (294 shells)
Use SHARK:           on

Processing maps (0.0 sec)
Average map sizes:
   Aux shells -> MOs              15.0
   Aux shells -> PAOs            114.0
   MOs        -> AO shells        54.0
   PAOs       -> AO shells        54.0

Calculating integrals (0.5 sec, 10.263 MB)
Sorting integrals (0.1 sec, 10.255 MB)
Total time for the integral transformation: 0.6 sec
--------------------------------
INITIAL GUESS AND PNO GENERATION
--------------------------------

PNO truncation parameters                   .... 
    PAOOverlapThresh   =        1.000e-08

    TCutPairs          =        1.000e-05
    TCutPNO            =        1.000e-07
    TCutPNOSingles     =        3.000e-09
    TCutMP2Pairs       =        1.000e-06
    TCutMKN            =        1.000e-02
    TCutDO             =        1.000e-02

Pair selection                          .... not used
Type of local MP2 treatment                 .... semi-local MP2
Strategy for PNO selection                  .... occupation number selection
Pair density normalization                  .... MP2 norm
Spin component scaling                      .... not used

   .... Finished loop over pairs
Making pair pair interaction lists          ... done

                       ===========================
                        120 OF  120 PAIRS ARE KEPT CCSD PAIRS
                          0 OF  120 PAIRS ARE KEPT MP2 PAIRS FOR (T)
                          0 OF  120 PAIRS ARE SKIPPED
                       ===========================

Total time spent in the initial guess                 ...     0.359 sec
SL-MP2 correlation energy (all non-screened pairs)    ...      -0.743909743344 Eh

Initial PNO correlation energy                        ...      -0.743628300108 Eh
sum of pair energies prescreened and skipped MP2 pairs...       0.000000000000 Eh
sum of pair energies of crude MP2 skipped pairs only  ...       0.000000000000 Eh
sum of MP2 pair energies for pairs that were not kept ...       0.000000000000 Eh
sum of PNO error estimates for the kept pairs         ...      -0.000281443237 Eh
                                                          --------------------
sum of all corrections                                         -0.000281443237
Initial total correlation energy                               -0.743909743344
Thresholds for map construction and integral transformation for fine MP2 and CCSD(T) calculation:
   TCutMKN   ...     1.0e-03
   TCutDO    ...     5.0e-03
   TCutPairs ...     1.0e-05
   TCutCMO   ...     1.0e-03
   TCutCPAO  ...     1.0e-03

Thresholds for map construction and integral transformation for strong Triples:
   TCutMKN   ...     1.0e-02
   TCutDO    ...     1.0e-02
   TCutCMO   ...     1.0e-03
   TCutCPAO  ...     1.0e-03

Thresholds for map construction and integral transformation for weak Triples:
   TCutMKN   ...     1.0e-01
   TCutDO    ...     2.0e-02
   TCutCMO   ...     1.0e-03
   TCutCPAO  ...     1.0e-03

--------------------------------
LOCAL RI TRANSFORMATION (IAVPAO)
--------------------------------

Orbital window:       6 to 20
Number of PAOs:     114
Basis functions:    114 (54 shells)
Aux. functions:     786 (294 shells)
Use SHARK:           on

Processing maps (0.0 sec)
Average map sizes:
   Aux shells -> MOs              15.0
   Aux shells -> PAOs            114.0
   MOs        -> AO shells        54.0
   PAOs       -> AO shells        54.0

Calculating integrals (0.4 sec, 10.263 MB)
Sorting integrals (0.1 sec, 10.255 MB)
Total time for the integral transformation: 0.6 sec
--------------------------------
INITIAL GUESS AND PNO GENERATION
--------------------------------

PNO truncation parameters                   .... 
    ScaleTCutPNO       =        1.000e-02
    PAOOverlapThresh   =        1.000e-08

    TCutPairs          =        1.000e-05
    TCutPNO            =        1.000e-07
    TCutPNOSingles     =        3.000e-09
    TCutMP2Pairs       =        1.000e-06
    TCutMKN            =        1.000e-03
    TCutDO             =        5.000e-03

Pair selection                          .... not used
Type of local MP2 treatment                 .... full local PMP2
Strategy for PNO selection                  .... occupation number selection
Pair density normalization                  .... MP2 norm
Spin component scaling                      .... not used

PASS-1: Formation of initial guess LMP2 amplitudes
Initial amplitudes guess done. Entering LMP2 iteration loop:
   Max. no of iterations          ...  50
   Energy convergence tolerance   ...    1.0e-07
   Residual convergence tolerance ...    5.0e-07
   Fock matrix cutoff             ...    1.0e-05 Eh
   DIIS convergence acceleration parameters:
        Max # vectors in DIIS     ... 7
        Start iteration of DIIS   ... 0
        Levelshift                ... 2.000e-01
        Damping factor 1          ... 5.000e-01
        Damping factor 2          ... 1.000e+00
   L-MP2 PNO cut-off              ...   1.0e-09
   L-MP2 PNO cut-off (core)       ...   1.0e-11
                           *** Turning on DIIS ***
LMP2-Iter=   0:  ELMP2= -0.766766207476  DE=   2.3e-02 RMAX=   1.1e-02
LMP2-Iter=   1:  ELMP2= -0.778745357402  DE=   1.2e-02 RMAX=   4.5e-03
LMP2-Iter=   2:  ELMP2= -0.781774784585  DE=   3.0e-03 RMAX=   1.8e-03
LMP2-Iter=   3:  ELMP2= -0.782141546540  DE=   3.7e-04 RMAX=   5.4e-04
LMP2-Iter=   4:  ELMP2= -0.782138380688  DE=   3.2e-06 RMAX=   1.3e-04
LMP2-Iter=   5:  ELMP2= -0.782136439876  DE=   1.9e-06 RMAX=   2.0e-05
LMP2-Iter=   6:  ELMP2= -0.782136774679  DE=   3.3e-07 RMAX=   2.7e-06
LMP2-Iter=   7:  ELMP2= -0.782136959462  DE=   1.8e-07 RMAX=   4.6e-07
LMP2-Iter=   8:  ELMP2= -0.782136983274  DE=   2.4e-08 RMAX=   1.4e-07
LMP2-Iter=   9:  ELMP2= -0.782136982523  DE=   7.5e-10 RMAX=   3.0e-08 => CONVERGED
PASS-2: Formation of Pair natural orbitals
   .... Finished loop over pairs

 PNO Occupation Number Statistics: 
  | Av. % of trace(Dij) retained        ...  99.888378443394
  | sigma^2 in % of trace(Dij) retained ...   4.28e-02
  | Av. % of trace(Di) retained         ...  99.999872168426
  | sigma^2 in % of trace(Di) retained  ...   4.62e-10
 Distributions of % trace(Dij) recovered:
  |       >= 99.9  ...    90 ( 75.0 % of all pairs)
  |   [99.0, 99.9) ...    30 ( 25.0 % of all pairs)
 Distributions of % trace(Di) recovered :
  |       >= 99.9  ...    15 (100.0 % of all I-pairs )

Making pair pair interaction lists          ... done

                       ===========================
                        120 OF  120 PAIRS ARE KEPT
                       ===========================

Total time spent in the initial guess                 ...    15.132 sec
L-MP2 correlation energy (all non-screened pairs)     ...      -0.782136982523 Eh
L-MP2 PNO error correction                            ...      -0.000002440074 Eh
                                                          --------------------
Initial total L-MP2 energy (non-screened pairs)       ...      -0.782139422597 Eh

Initial PNO correlation energy                        ...      -0.781895433410 Eh
sum of pair energies estimated for screened out pairs ...       0.000000000000 Eh
sum of MP2 pair energies for pairs that were not kept ...       0.000000000000 Eh
sum of PNO error estimates for the kept pairs         ...      -0.000243989188 Eh
                                                          --------------------
sum of all corrections                                         -0.000243989188
Initial total correlation energy                               -0.782139422597
Thresholds for map construction and integral transformation for fine MP2 and CCSD(T) calculation:
   TCutMKN   ...     1.0e-03
   TCutDO    ...     5.0e-03
   TCutPairs ...     1.0e-05
   TCutCMO   ...     1.0e-03
   TCutCPAO  ...     1.0e-03

Number of pairs in F12 (TCutDOF12 = 3.000e-04)        ...     120

Time for aux screen maps:            0.014
Time for maps after fine MP2:            0.042
-----------------------------
LOCAL RI TRANSFORMATION (IJV)
-----------------------------

Orbital window:       6 to 20
Basis functions:    114 (54 shells)
Aux. functions:     786 (294 shells)
Use SHARK:           on

Processing maps (0.0 sec)
Average map sizes:
   Aux shells -> MOs(i)           15.0
   Aux shells -> MOs(j)           15.0
   MOs        -> AO shells        54.0

Calculating integrals (0.3 sec, 1.358 MB)
Sorting integrals (0.0 sec, 1.349 MB)
Total time for the integral transformation: 0.4 sec
--------------------------------
LOCAL RI TRANSFORMATION (VABPAO)
--------------------------------

Number of PAOs:     114
Basis functions:    114 (54 shells)
Aux. functions:     786 (294 shells)
Use SHARK:           on

Processing maps (0.0 sec)
Average map sizes:
   Aux shells -> PAOs            114.0
   PAOs       -> AO shells        54.0

Calculating integrals (0.4 sec, 77.942 MB)
Finished


-------------------------------------
Pair Pair Term precalculation with     
RI-(ij|mn) and (im|jn) transformation  
ON THE FLY                             
-------------------------------------

   IBatch   1 (of   1)              ... done (    6.098 sec)
Total EXT                           ...           6.099 sec

---------------------
RI-PNO TRANSFORMATION
---------------------

Total Number of PNOs                   ...  4830
Average number of PNOs per pair        ...    40
Maximal number of PNOs per pair        ...    63
   #pairs with  1 -  5 PNOs   :    0
   #pairs with  6 - 10 PNOs   :    0
   #pairs with 11 - 15 PNOs   :    0
   #pairs with 16 - 20 PNOs   :    3
   #pairs with 21 - 25 PNOs   :   18
   #pairs with 26 - 30 PNOs   :    0
   #pairs with 31 - 35 PNOs   :   18
   #pairs with 36 - 40 PNOs   :   18
   #pairs with 41 - 45 PNOs   :   30
   #pairs with 46 - 50 PNOs   :   12
   #pairs with 51 - 55 PNOs   :    6
   #pairs with 61 - 65 PNOs   :   15

Generation of (ij|ab)[P] integrals            ... on
Generation of (ia|bc)[P],(ja|bc)[P] integrals ... on
Storage of 3 and 4 external integrals         ... on
Generation of ALL (ka|bc)[P] integrals        ... on
Keep RI integrals in memory                   ... off

Ibatch:  1 (of  1)
Starting 2-4 index PNO integral generation ... done

Timings:
Total PNO integral transformation time     ...          7.059 sec
Size of the 3-external file                ...        77 MB
Size of the 4-external file                ...       493 MB
Size of the IKJL file                      ...         0 MB
Size of the all 3-external file            ...       581 MB
Size of the 1-external file                ...         1 MB

Making pair/pair overlap matrices          ... done (    0.228 sec)
Size of the pair overlap file              ... 124 MB
Redoing the guess amplitudes               ... done (    0.037 sec)

-------------------------
FINAL STARTUP INFORMATION
-------------------------

E(0)                                       ...   -230.722339812
E(L-MP2)                                   ...     -0.782139423
E(L-MP2) including corrections             ...     -0.782139423
Initial E(tot)                             ...   -231.504479234
<T|T>                                      ...      0.254678811
Number of pairs included                   ... 120
Total number of pairs                      ... 120

------------------------------------------------
                  RHF COUPLED CLUSTER ITERATIONS
------------------------------------------------

Number of PNO amplitudes to be optimized   ...       211590
Number of non-PNO amplitudes               ...      1037880
Untruncated number of regular amplitudes   ...      1037880

Iter       E(tot)           E(Corr)          Delta-E          Residual     Time
  0   -231.466384775     -0.743800974      0.038338449      0.009677090   17.14
                           *** Turning on DIIS ***
  1   -231.512299085     -0.789715284     -0.045914310      0.006031629   18.45
  2   -231.537502607     -0.814918806     -0.025203522      0.003517245   19.52
  3   -231.541479117     -0.818895316     -0.003976510      0.002114943   21.37
  4   -231.543135409     -0.820551608     -0.001656292      0.001109097   17.72
  5   -231.543789595     -0.821205794     -0.000654186      0.000415378   20.04
  6   -231.543957767     -0.821373966     -0.000168172      0.000122914   20.22
  7   -231.543968053     -0.821384252     -0.000010286      0.000034534   17.66
  8   -231.543973145     -0.821389344     -0.000005092      0.000008751   17.49
               --- The Coupled-Cluster iterations have converged ---
Making OccT1 to AO map ... ok
3-index local transformation (OBS,OBS/AUX) for   op=0   ... done (      0.6 sec)
3-index local transformation (OBS,CABS/AUX) for  op=0   ... done (      1.6 sec)
3-index local transformation (OBS,OBS/AUX) for   op=1   ... done (      1.2 sec)
3-index local transformation (OBS,CABS/AUX) for  op=1   ... done (      1.7 sec)
3-index local transformation (OBS,OBS/AUX) for   op=2   ... done (      1.2 sec)
3-index local transformation (OBS,CABS/AUX) for  op=2   ... done (      1.2 sec)
3-index local transformation (OBS,OBS/AUX) for   op=3   ... done (      0.6 sec)
3-index local transformation (OBS,CABS/AUX) for  op=3   ... done (      1.3 sec)
3-index local transformation (OBS,OBS/AUX) for   op=4   ... done (      0.6 sec)
3-index local transformation (OBS,CABS/AUX) for  op=4   ... done (      1.1 sec)
3-index local transformation (OBS,OBS/AUX) of (pa|X)    ... done (      1.2 sec)
3-index local transformation (OBS_T1,OBS/AUX) for op=0  ... done (      0.5 sec)
3-index local transformation (OBS_T1,OBS/AUX) for op=1  ... done (      0.6 sec)
3-index local transformation (OBS_F,OBS/AUX) for op=2   ... done (      0.5 sec)
3-index local transformation (OBS_F,CABS/AUX)for op=2   ... done (      0.9 sec)
------------------------
RHF DLPNO F12 CORRECTION
------------------------

Doing SCF density matrices                              ... done (      0.0 sec)
Calculating RI Coulomb operators
Retrieving the Coulomb fitting basis                    ... done
       .... OBS/OBS done        (      0.2 sec)
       .... CABS/OBS done       (      0.2 sec)
       .... CABS/CABS done      (      0.3 sec)

F12 OBS GRIDX
-------------

General Integration Accuracy     IntAcc      ... 4.338
Radial Grid Type                 RadialGrid  ... OptM3 with GC (2021)
Angular Grid (max. ang.)         AngularGrid ... 3 (Lebedev-194)
Angular grid pruning method      GridPruning ... 5 (extended)
Weight generation scheme         WeightScheme... Becke
Basis function cutoff            BFCut       ... 1.0000e-10
Integration weight cutoff        WCut        ... 1.0000e-14
Angular grids for H and He will be reduced by one unit
Partially contracted basis set               ... on
Rotationally invariant grid construction     ... off

Total number of grid points                  ...    91940
Total number of batches                      ...     1442
Average number of points per batch           ...       63
Average number of grid points per atom       ...     7662

F12 CABS GRIDX
--------------

General Integration Accuracy     IntAcc      ... 4.338
Radial Grid Type                 RadialGrid  ... OptM3 with GC (2021)
Angular Grid (max. ang.)         AngularGrid ... 3 (Lebedev-194)
Angular grid pruning method      GridPruning ... 5 (extended)
Weight generation scheme         WeightScheme... Becke
Basis function cutoff            BFCut       ... 1.0000e-10
Integration weight cutoff        WCut        ... 1.0000e-14
Angular grids for H and He will be reduced by one unit
Partially contracted basis set               ... on
Rotationally invariant grid construction     ... off

Total number of grid points                  ...    91940
Total number of batches                      ...     1442
Average number of points per batch           ...       63
Average number of grid points per atom       ...     7662

Calculating COSX Exchange operators
       .... OBS/OBS done        (      0.8 sec)
       .... CABS/OBS done       (      0.8 sec)
       .... CABS/CABS done      (      4.0 sec)
Completing Fock operators                               ... done (      0.2 sec)
Calculating F12 intermediates (incore)                  ... 

WARNING (ORCA_TOOLS): CalcCholeskyLLoc() returned with error 1
                      Potentially linear dependencies in the aux basis!



WARNING (ORCA_TOOLS): CalcCholeskyLLoc() returned with error 1
                      Potentially linear dependencies in the aux basis!



WARNING (ORCA_TOOLS): CalcCholeskyLLoc() returned with error 1
                      Potentially linear dependencies in the aux basis!



WARNING (ORCA_TOOLS): CalcCholeskyLLoc() returned with error 1
                      Potentially linear dependencies in the aux basis!


Total T*B*T Contribution              =   0.186846391423

Total V*T MP2 Contribution            =  -0.433451627058

Total V*T CCSD without S Contribution =  -0.370401351349

Total V*T CCSD with S Contribution    =  -0.372378097461

DeltaEC_MP2                           =  -0.246605235634

DeltaEC_CCSD without S                =  -0.183554959926

DeltaEC_CCSD with S                   =  -0.185531706038
Total time of computation of intermediates                       (     11.4 sec)
Calculating correlation correction                      ... done (      2.2 sec)

F12 correction                   :  -0.185531706038
HF basis set correction          :  -0.057852555826
Sum of the two                   :  -0.243384261864

Total time for F12 correction    :    21.678 sec
  .... cleaning up and leaving F12-CCSD

----------------------
COUPLED CLUSTER ENERGY
----------------------

Uncorrected 0th order energy               ...   -230.722339812
F12-HF basis set correction                ...     -0.057852556
Corrected 0th order energy                 ...   -230.780192368

E(CORR)(strong-pairs)                      ...     -0.821389344
E(CORR)(weak-pairs)                        ...     -0.000243989
E(CORR)(corrected)                         ...     -0.821633333
Uncorrected correlation energy             ...     -0.821389344
F12-correction to the correlation energy   ...     -0.185531706
Final F12 correlation energy               ...     -1.007165039

E(TOT)-before F12 corrections              ...   -231.543973145
E(TOT)-after HF correction                 ...   -231.601825700
E(TOT)-after all F12 corrections           ...   -231.787357406

Singles Norm <S|S>**1/2                    ...      0.052710434  
T1 diagnostic                              ...      0.009623565  

------------------
LARGEST AMPLITUDES
------------------
  13-> 21  13-> 21       0.036579
  14-> 21  14-> 21       0.036579
   7-> 21   7-> 21       0.036579
   6-> 21   6-> 21       0.036579
  10-> 21  10-> 21       0.036579
   9-> 21   9-> 21       0.036579
  15-> 22  15-> 22       0.034490
  18-> 22  18-> 22       0.034490
  16-> 22  16-> 22       0.034490
  17-> 22  17-> 22       0.034490
  20-> 22  20-> 22       0.034490
  19-> 22  19-> 22       0.034490
  14-> 22  13-> 22       0.032337
   7-> 22   6-> 22       0.032336
  10-> 22   9-> 22       0.032336
  17-> 23  17-> 23       0.024182


-------------------------------------------
DLPNO BASED TRIPLES CORRECTION
-------------------------------------------

Singles multiplier          ...  1.000000
TCutTNO                     ... 1.000e-09
TCutMP2Pairs                ... 1.000e-06
TCutDOStrong                ... 1.000e-02
TCutMKNStrong               ... 1.000e-02
TCutDOWeak                  ... 2.000e-02
TCutMKNWeak                 ... 1.000e-01

Parameters used in iterative triples
TCutFock                    ... 1.000e-03
TCutWeak                    ... 1.000e-08
TCutWeakGuess               ... 6.000e-06
TCutIter                    ... 1.000e-03
TNOScaleS                   ... 1.000e+01
TNOScaleW                   ... 1.000e+02
ETol                        ... 1.000e-04

Fragment selection                          .... not used
Number of Triples that are to be computed   ...       665

 . . . . . . . . .
10% done  
20% done  
30% done  
40% done  
50% done  
60% done  
70% done  
80% done  
90% done               (     12.787 sec)

-------------------
Triples Iterations:
-------------------

The T1 Strong/Weak pair is = 319/346 

Iter        E(Triple)      Delta-E            Time
  0     0.000000000000    0.033240875503     13.00
  1    -0.035129917269    0.001889041766     26.55
  2    -0.035426279061    0.000296361792     35.71
  3    -0.035457654820    0.000031375758     36.60

------------------
TRIPLES CORRECTION
------------------

The Conventional (T0) is    -0.033363922930
The Truncated    (T0) is    -0.033240875503
The corrected     (T) is    -0.035580702246

Triples timings:
Total time for T0               ...    13.780 sec
Total time for Iterative (T)    ...   100.965 sec
Total time of overall (T)       ...   120.915 sec

Triples List generation         ...     0.000 sec
TNO generation                  ...     0.211 sec
Pair density generation         ...     0.003 sec
Look up tables                  ...     0.000 sec
Generating 3-index integrals    ...     3.305 sec
  Make 4-ind.int. from 3-ind.int...     1.977 sec
  Projecting amplitudes (D + S) ...     0.236 sec
  Downprojecting integrals      ...     1.619 sec
  Energy contr. (sum over a,b,c)...     4.040 sec
Fitting ET(->0)                 ...     0.000 sec

Everything after 3-index        ...     9.482 sec

Timing details:
 TNO integrals                  ...     5.014 sec
   Reading 3-index integrals    ...     0.804 sec
   Sorting integrals            ...     0.572 sec
       Sorting integrals 1      ...     0.000 sec
       Sorting integrals 2      ...     0.256 sec
       Sorting integrals 3      ...     0.066 sec
       Sorting integrals 4      ...     0.003 sec
       Sorting integrals 5      ...     0.009 sec
       Sorting integrals 6      ...     0.238 sec
   Calculating local VM**-1/2   ...     0.257 sec
   Orthogonal. integrals        ...     0.530 sec
   Multipl. 3-index integrals   ...     2.851 sec
   All concerning IRIab (w/TNO) ...     0.896 sec

 Calculate W0/W1                ...     1.606 sec
 W 3-ext contribution           ...     0.851 sec
 W 3-int contribution           ...     0.252 sec
 Sorting W                      ...     0.453 sec

 V exchange contribution        ...     0.887 sec

 Timings for Triples without generation
     of 3-index integrals       ...     9.480 sec
       0 weak pairs             ...     9.480 sec
       1 weak pair              ...     0.000 sec
       2 weak pairs             ...     0.000 sec
       3 weak pairs             ...     0.000 sec
  Extra time for extrapolation  ...     0.000 sec

Number of Triples   (0, 1, 2, 3 weak pairs; overall):    665       0       0       0  (   665)
Number of Atoms     (0, 1, 2, 3 weak pairs; overall):   12.0     0.0     0.0     0.0  (    12)
Number of PAOs      (0, 1, 2, 3 weak pairs; overall):  113.9     0.0     0.0     0.0  (   114)
Number of AuxFcns   (0, 1, 2, 3 weak pairs; overall):  610.4     0.0     0.0     0.0  (   786)
Number of TNOs      (0, 1, 2, 3 weak pairs         ):   74.3     0.0     0.0     0.0
Aver. Number of NTNO, Atoms, PAOs, AuxFcns / Triples:    665    74.3    12.0   113.9   610.4

Triples Correction (T)                     ...     -0.035580702
Final correlation energy (without F12)     ...     -0.857214035
Final correlation energy (with F12)        ...     -1.042745741
F12-E(CCSD)                                ...   -231.787357406
F12-E(CCSD(T))                             ...   -231.822938109



------------------------------------------------------------------------------- 
                                     TIMINGS                                   
------------------------------------------------------------------------------- 


Total execution time                   ...      370.466 sec

Localization of occupied MO's          ...        1.246 sec (  0.3%)
Fock Matrix Formation                  ...        2.341 sec (  0.6%)
Global overlap, Fock, MKN matrices     ...        0.637 sec (  0.2%)
Differential overlap integrals         ...        1.992 sec (  0.5%)
Organizing maps                        ...        0.139 sec (  0.0%)
RI 3-index integral generations        ...        2.027 sec (  0.5%)
RI-PNO integral transformation         ...       15.064 sec (  4.1%)
Initial Guess                          ...       15.559 sec (  4.2%)
DIIS Solver                            ...        3.188 sec (  0.9%)
State Vector Update                    ...        0.014 sec (  0.0%)
Sigma-vector construction              ...      167.963 sec ( 45.3%)
  <D|H|D>(0-ext)                       ...       24.211 sec ( 14.4% of sigma)
  <D|H|D>(2-ext Fock)                  ...        0.002 sec (  0.0% of sigma)
  <D|H|D>(2-ext)                       ...       13.763 sec (  8.2% of sigma)
  <D|H|D>(4-ext)                       ...        2.853 sec (  1.7% of sigma)
  <D|H|D>(4-ext-corr)                  ...        9.222 sec (  5.5% of sigma)
  CCSD doubles correction              ...        4.199 sec (  2.5% of sigma)
  <S|H|S>                              ...       23.189 sec ( 13.8% of sigma)
  <S|H|D>(1-ext)                       ...        0.274 sec (  0.2% of sigma)
  <D|H|S>(1-ext)                       ...        0.001 sec (  0.0% of sigma)
  <S|H|D>(3-ext)                       ...        0.220 sec (  0.1% of sigma)
  Fock-dressing                        ...       26.837 sec ( 16.0% of sigma)
  Singles amplitudes                   ...       19.299 sec ( 11.5% of sigma)
  (ik|jl)-dressing                     ...       18.820 sec ( 11.2% of sigma)
  (ij|ab),(ia|jb)-dressing             ...       19.894 sec ( 11.8% of sigma)
  Pair energies                        ...        0.059 sec (  0.0% of sigma)
Total Time for computing F12           ...       36.860 sec (  9.9% of ALL)
Total Time for computing (T)           ...      121.001 sec ( 32.7% of ALL)


Maximum memory used throughout the entire MDCI-calculation: 1504.0 MB

-------------------------   --------------------
FINAL SINGLE POINT ENERGY      -231.822938108720
-------------------------   --------------------


                            ***************************************
                            *     ORCA property calculations      *
                            ***************************************


  WARNING: The energy has been calculated at the MDCI level but the densities
           used in the property calculations are still SCF densities
           MDCI response densities have not been calculated 
           use %mdci Density linearized end
           or  %mdci Density unrelaxed end
           or  %mdci Density orbopt end

                                    ---------------------
                                    Active property flags
                                    ---------------------
   (+) Dipole Moment


------------------------------------------------------------------------------
                       ORCA ELECTRIC PROPERTIES CALCULATION
------------------------------------------------------------------------------

Dipole Moment Calculation                       ... on
Quadrupole Moment Calculation                   ... off
Polarizability Calculation                      ... off
GBWName                                         ... benzene_lw1x-no-diffuse-on-c_Compound_1.gbw
Electron density                                ... benzene_lw1x-no-diffuse-on-c_Compound_1.scfp
The origin for moment calculation is the CENTER OF MASS  = ( 0.000000,  0.000000  0.000000)

-------------
DIPOLE MOMENT
-------------
                                X             Y             Z
Electronic contribution:     -0.00000       0.00000       0.00000
Nuclear contribution   :      0.00000       0.00000       0.00000
                        -----------------------------------------
Total Dipole Moment    :     -0.00000       0.00000       0.00000
                        -----------------------------------------
Magnitude (a.u.)       :      0.00000
Magnitude (Debye)      :      0.00000



--------------------
Rotational spectrum 
--------------------
 
Rotational constants in cm-1:     0.191043     0.191043     0.095521 
Rotational constants in MHz :  5727.313348  5727.312438  2863.656447 

 Dipole components along the rotational axes: 
x,y,z [a.u.] :     0.000000    -0.000000     0.000000 
x,y,z [Debye]:     0.000000    -0.000000     0.000000 

 

Timings for individual modules:

Sum of individual times         ...      388.641 sec (=   6.477 min)
GTO integral calculation        ...        6.091 sec (=   0.102 min)   1.6 %
SCF iterations                  ...        8.898 sec (=   0.148 min)   2.3 %
MDCI module                     ...      373.652 sec (=   6.228 min)  96.1 %


################################################################################


                                COMPOUND JOB  2 
Basename: benzene_lw1x-no-diffuse-on-c_Compound_2
NOTE: please remember that MaxCore and PAL settings will be ignored.

################################################################################

================================================================================
                                       INPUT FILE
================================================================================
NAME = benzene_lw1x-no-diffuse-on-c_Compound_2.inp
|  1>     ! DefGrid3 RIJCOSX TightPNO DLPNO-CCSD(T1)-F12 MiniPrint NoPop
|  2>     %Basis
|  3>       Basis        "maug-cc-pV(T+d)Z"
|  4>       AuxJ         "AutoAux"
|  5>       AuxC         "AutoAux"
|  6>       CABS         "AutoAux"
|  7>       NewGTO     C "cc-pVTZ" End
|  8>       NewAuxjGTO C "AutoAux" End
|  9>       NewAuxcGTO C "AutoAux" End
| 10>       NewCabsGTO C "AutoAux" End
| 11>     End
| 12> 
| 13>                          ****END OF INPUT****
================================================================================
Warning! AutoAux has not been tested for CABS - use at your own risk!
================================================================================

----- Orbital basis set information -----
Your calculation utilizes the basis: may-cc-pV(T+d)Z 
  E. Papajak, D. G. Truhlar, J. Chem. Theory Comput. 7, 10-18 (2011).

The basis set includes element-specific modifications.

Your calculation utilizes the basis: cc-pVTZ 
       H, B-Ne : Obtained from the ccRepo (grant-hill.group.shef.ac.uk/ccrepo) Feb. 2017
                 T. H. Dunning, Jr., J. Chem. Phys. 90, 1007 (1989)
            He : Obtained from the ccRepo (grant-hill.group.shef.ac.uk/ccrepo) Feb. 2017
                 D. E. Woon, T. H. Dunning, Jr., J. Chem. Phys. 100, 2975 (1994)
  Li-Be, Na-Mg : Obtained from the ccRepo (grant-hill.group.shef.ac.uk/ccrepo) Feb. 2017
                 B. P. Prascher, D. E. Woon, K. A. Peterson, T. H. Dunning, Jr., A. K. Wilson, Theor. Chem. Acc. 128, 69 (2011)
         Al-Ar : Obtained from the ccRepo (grant-hill.group.shef.ac.uk/ccrepo) Feb. 2017
                 D. E. Woon, T. H. Dunning, Jr., J. Chem. Phys. 98, 1358 (1993)
            Ca : Obtained from the Peterson Research Group Website (tyr0.chem.wsu.edu/~kipeters) Feb. 2017
                 J. Koput, K. A. Peterson, J. Phys. Chem. 106, 9595 (2002)
         Sc-Zn : Obtained from the ccRepo (grant-hill.group.shef.ac.uk/ccrepo) Feb. 2017
                 N. B. Balabanov, K. A. Peterson, J. Chem. Phys. 123, 064107 (2005)
                 N. B. Balabanov, K. A. Peterson, J. Chem. Phys. 125, 074110 (2006)
         Ga-Kr : Obtained from the ccRepo (grant-hill.group.shef.ac.uk/ccrepo) Feb. 2017
                 A. K. Wilson, D. E. Woon, K. A. Peterson, T. H. Dunning, Jr., J. Chem. Phys. 110, 7667 (1999)
             Y : Obtained from the ccRepo (grant-hill.group.shef.ac.uk/ccrepo) Feb. 2017
                 K. A. Peterson, D. Figgen, M. Dolg, H. Stoll, J. Chem. Phys. 126, 124101 (2007)
[...]
 236   0.0000       5.233415       142.4085 
 237   0.0000       5.244373       142.7066 
 238   0.0000       5.368372       146.0808 
 239   0.0000       5.372976       146.2061 
 240   0.0000       5.372981       146.2062 
 241   0.0000       5.401142       146.9725 
 242   0.0000       5.401149       146.9727 
 243   0.0000       5.474004       148.9552 
 244   0.0000       5.474011       148.9554 
 245   0.0000       5.504621       149.7883 
 246   0.0000       5.504651       149.7892 
 247   0.0000       5.570794       151.5890 
 248   0.0000       5.570805       151.5893 
 249   0.0000       5.745778       156.3506 
 250   0.0000       5.821386       158.4080 
 251   0.0000       5.995875       163.1561 
 252   0.0000       5.995879       163.1562 
 253   0.0000       6.035745       164.2410 
 254   0.0000       6.083814       165.5490 
 255   0.0000       6.174228       168.0093 
 256   0.0000       6.174232       168.0094 
 257   0.0000       6.466928       175.9741 
 258   0.0000       6.554956       178.3694 
 259   0.0000       6.554971       178.3698 
 260   0.0000       6.565693       178.6616 
 261   0.0000       6.565696       178.6617 
 262   0.0000       7.081669       192.7020 
 263   0.0000       7.317513       199.1197 
 264   0.0000      10.402028       283.0536 
 265   0.0000      10.524255       286.3795 
 266   0.0000      10.524256       286.3796 
 267   0.0000      10.565412       287.4995 
 268   0.0000      10.565413       287.4995 
 269   0.0000      10.804465       294.0044 
 270   0.0000      11.411411       310.5203 
 271   0.0000      11.517699       313.4125 
 272   0.0000      11.517699       313.4125 
 273   0.0000      11.633826       316.5725 
 274   0.0000      11.633828       316.5726 
 275   0.0000      11.726829       319.1032 
 276   0.0000      11.771687       320.3239 
 277   0.0000      11.771688       320.3239 
 278   0.0000      11.862205       322.7870 
 279   0.0000      11.862209       322.7871 
 280   0.0000      11.875488       323.1485 
 281   0.0000      11.927417       324.5615 
 282   0.0000      12.840409       349.4053 
 283   0.0000      13.186998       358.8365 
 284   0.0000      13.187004       358.8366 
 285   0.0000      13.539151       368.4190 
 286   0.0000      13.539155       368.4191 
 287   0.0000      14.205975       386.5642 
 288   0.0000      14.579076       396.7168 
 289   0.0000      14.729149       400.8005 
 290   0.0000      14.764881       401.7728 
 291   0.0000      14.781009       402.2117 
 292   0.0000      14.781032       402.2123 
 293   0.0000      14.858435       404.3186 
 294   0.0000      14.858442       404.3187 
 295   0.0000      14.874200       404.7475 
 296   0.0000      14.963642       407.1814 
 297   0.0000      14.963650       407.1816 
 298   0.0000      15.007839       408.3841 
 299   0.0000      15.007853       408.3844 
 300   0.0000      15.130573       411.7238 
 301   0.0000      15.130578       411.7240 
 302   0.0000      15.132594       411.7788 
 303   0.0000      15.196930       413.5295 
 304   0.0000      15.196956       413.5302 
 305   0.0000      15.254379       415.0928 
 306   0.0000      15.327687       417.0876 
 307   0.0000      15.777066       429.3158 
 308   0.0000      15.777068       429.3158 
 309   0.0000      15.917255       433.1305 
 310   0.0000      15.934289       433.5941 
 311   0.0000      15.934293       433.5942 
 312   0.0000      16.474353       448.2899 
 313   0.0000      16.474364       448.2902 
 314   0.0000      16.548244       450.3006 
 315   0.0000      16.548259       450.3010 
 316   0.0000      16.678945       453.8572 
 317   0.0000      16.834607       458.0930 
 318   0.0000      50.222362      1366.6199 
 319   0.0000      50.310984      1369.0315 
 320   0.0000      50.310988      1369.0316 
 321   0.0000      50.348672      1370.0570 
 322   0.0000      50.348677      1370.0571 
 323   0.0000      50.517260      1374.6445 
 324   0.0000      50.932758      1385.9508 
 325   0.0000      51.011342      1388.0892 
 326   0.0000      51.011346      1388.0893 
 327   0.0000      51.107145      1390.6961 
 328   0.0000      51.107148      1390.6962 
 329   0.0000      51.171339      1392.4429 
 330   0.0000      51.210674      1393.5133 
 331   0.0000      51.210675      1393.5133 
 332   0.0000      51.246328      1394.4835 
 333   0.0000      51.246335      1394.4837 
 334   0.0000      51.293535      1395.7680 
 335   0.0000      51.443125      1399.8386 
 336   0.0000      61.911513      1684.6979 
 337   0.0000      62.399720      1697.9827 
 338   0.0000      62.399725      1697.9828 
 339   0.0000      62.880818      1711.0741 
 340   0.0000      62.880821      1711.0741 
 341   0.0000      63.788046      1735.7610 
Total SCF time: 0 days 0 hours 0 min 9 sec 

Maximum memory used throughout the entire SCF-calculation: 82.8 MB


           ************************************************************
           *        Program running with 30 parallel MPI-processes    *
           *              working on a common directory               *
           ************************************************************

------------------------------------------------------------------------------
                                ORCA  MP2 
------------------------------------------------------------------------------

Freezing NCore=0 chemical core electrons
Initializing SHARK ... done


------------------------------------------------------------------------------
                           ORCA ORBITAL LOCALIZATION
------------------------------------------------------------------------------

Input orbitals are from                  ... benzene_lw1x-no-diffuse-on-c_Compound_4.gbw
Output orbitals are to                   ... benzene_lw1x-no-diffuse-on-c_Compound_4.loc
Max. number of iterations                ... 128
Localizations seeded randomly            ... off
Convergence tolerance                    ... 1.000e-06
Treshold for strong local MOs            ... 9.500e-01
Treshold for bond MOs                    ... 8.500e-01
Operator                                 ... 0
Orbital range for localization           ... 0 to 20
Localization criterion                   ... FOSTER-BOYS (AUGMENTED HESSIAN)
Doing the dipole integrals     ... o.k.
Initial value of the localization sum :   118.029603
ITERATION   0 : L=  168.0993358079 DL=  5.01e+01 (AVERGE_DL)=    0.4882901793 
ITERATION   1 : L=  179.4800061731 DL=  1.14e+01 (AVERGE_DL)=    0.2327953359 
ITERATION   2 : L=  179.8215552994 DL=  3.42e-01 (AVERGE_DL)=    0.0403289525 
ITERATION   3 : L=  180.1083874188 DL=  2.87e-01 (AVERGE_DL)=    0.0369576411 
ITERATION   4 : L=  180.6263007310 DL=  5.18e-01 (AVERGE_DL)=    0.0496613921 
ITERATION   5 : L=  180.9043811060 DL=  2.78e-01 (AVERGE_DL)=    0.0363894526 
ITERATION   6 : L=  180.9878641850 DL=  8.35e-02 (AVERGE_DL)=    0.0199383668 
ITERATION   7 : L=  181.0091675620 DL=  2.13e-02 (AVERGE_DL)=    0.0100719736 
ITERATION   8 : L=  181.0144796658 DL=  5.31e-03 (AVERGE_DL)=    0.0050294863 
ITERATION   9 : L=  181.0158219046 DL=  1.34e-03 (AVERGE_DL)=    0.0025281641 
ITERATION  10 : L=  181.0161653143 DL=  3.43e-04 (AVERGE_DL)=    0.0012787823 
ITERATION  11 : L=  181.0162538133 DL=  8.85e-05 (AVERGE_DL)=    0.0006491716 
ITERATION  12 : L=  181.0162767112 DL=  2.29e-05 (AVERGE_DL)=    0.0003302082 
ITERATION  13 : L=  181.0162826495 DL=  5.94e-06 (AVERGE_DL)=    0.0001681592 
ITERATION  14 : L=  181.0162841899 DL=  1.54e-06 (AVERGE_DL)=    0.0000856474 
ITERATION  15 : L=  181.0162845911 DL=  4.01e-07 (AVERGE_DL)=    0.0000437072 
LOCALIZATION SUM CONVERGED

------------------------------------------------------
AUGMENTED HESSIAN OPTIMIZATION OF FOSTER-BOYS ORBITALS
------------------------------------------------------

Spin operator:           0
Orbital window:          0 to 20
Number of iterations:    128
Gradient tolerance:      1.000e-06
Number of pairs:         210
Davidson threshold:      2000
Diagonalization method:  LAPACK
Iter:    0   L: 181.0162845911   Grad. norm: 2.422972e-03
   *** Likely close to a maximum now. ***
       Augmented Hessian eigenvalues:  2.90e-07 -2.66e+00 -3.26e+00 -3.26e+00 ... 
Iter:    1   L: 181.0162847362   Grad. norm: 1.066516e-07
LOCALIZATION HAS CONVERGED.

Eigenvalues of the Hessian:
  0 -2.663e+00
  1 -3.260e+00
  2 -3.260e+00
  3 -6.411e+00
  4 -6.411e+00
  5 -6.411e+00
  6 -6.411e+00
  7 -6.411e+00
  8 -6.411e+00
  9 -7.245e+00
    ...


------------------------------------------------------------------------------- 
                    LOCALIZED MOLECULAR ORBITAL COMPOSITIONS                   
------------------------------------------------------------------------------- 

The Mulliken populations for each LMO on each atom are computed
The LMO`s will be ordered according to atom index and type
  (A) Strongly localized MO`s have populations of >=0.950 on one atom
  (B) Two center bond orbitals have populations of >=0.850 on two atoms
  (C) Other MO`s are considered to be `delocalized`

FOUND  -   6 strongly local MO`s
       -  15 two center bond MO`s
       -   0 significantly delocalized MO`s

Rather strongly localized orbitals:
MO   5:   5C  -   1.003203
MO   4:   4C  -   1.003203
MO   3:   3C  -   1.003206
MO   2:   2C  -   1.003203
MO   1:   1C  -   1.003203
MO   0:   0C  -   1.003206
Bond-like localized orbitals:
MO  20:  11H  -   0.452134  and   5C  -   0.571633
MO  19:  10H  -   0.452129  and   4C  -   0.571635
MO  18:   9H  -   0.452136  and   3C  -   0.571534
MO  17:   8H  -   0.452132  and   2C  -   0.571639
MO  16:   7H  -   0.452135  and   1C  -   0.571633
MO  15:   6H  -   0.452126  and   0C  -   0.571528
MO  14:   5C  -   0.514404  and   4C  -   0.514402
MO  13:   5C  -   0.463898  and   0C  -   0.464026
MO  12:   5C  -   0.463899  and   0C  -   0.464025
MO  11:   4C  -   0.463897  and   3C  -   0.464027
MO  10:   4C  -   0.463897  and   3C  -   0.464026
MO   9:   3C  -   0.514498  and   2C  -   0.514282
MO   8:   2C  -   0.463964  and   1C  -   0.463970
MO   7:   2C  -   0.463966  and   1C  -   0.463967
MO   6:   1C  -   0.514278  and   0C  -   0.514502
Localized MO's were stored in: benzene_lw1x-no-diffuse-on-c_Compound_4.loc



Calculating differential overlap integrals ... ok
Threshold for domain construction in prescreening: TCutDOPre = 3.0e-02

--------------------------
ELECTRON PAIR PRESCREENING
--------------------------

Dipole-based pair screening          .... used

   TCutDOij = 1.000000e-05
   TCutPre  = 1.000000e-06
   .... Finished loop over pairs
Total time spent in the prescreening                  ...     0.034 sec
sum of pair energies estimated for screened out pairs ...       0.000000000000 Eh

---------------------------
MAP CONSTRUCTION THRESHOLDS
---------------------------
    TCutMKN     ...     1.0e-03
    TCutDO      ...     5.0e-03
    TCutC(MO)   ...     1.0e-03
    TCutC(PAO)  ...     1.0e-03

--------------------------------
LOCAL RI TRANSFORMATION (IAVPAO)
--------------------------------

Orbital window:       0 to 20
Number of PAOs:     342
Basis functions:    342 (126 shells)
Aux. functions:    1662 (450 shells)
Use SHARK:           on

Processing maps (0.0 sec)
Average map sizes:
   Aux shells -> MOs              21.0
   Aux shells -> PAOs            342.0
   MOs        -> AO shells       117.4
   PAOs       -> AO shells       126.0

Calculating integrals (0.4 sec, 91.087 MB)
Sorting integrals (0.6 sec, 91.068 MB)
Total time for the integral transformation: 1.1 sec

----------------------------
Local MP2 Energy Calculation
----------------------------
Number of orbital pairs included:    231
Truncation parameters:
    PAOOverlapThresh    =        1.000e-08
    TCutPNO             =        1.000e-09

Spin component scaling                      .... not used
MP2 energy scaling factor                   .... 1.000

Formation of semicanonical amplitudes.
 10% done.
 20% done.
 30% done.
 40% done.
 50% done.
 60% done.
 70% done.
 80% done.
 90% done.
100% done.

Finished the LMP2 guess in 2.4 sec.

Average number of PAOs per pair        342.0
Average number of nrPAOs per pair      321.0
Average number of PNOs per pair         99.6
Average number of AUX  per pair        1291.7

Semicanonical MP2 energy:                   -1.191722746765 Eh
Semicanonical MP2 energy in PNO basis:      -1.191668850268 Eh

Initial amplitudes guess done. Entering DLPNO-MP2 iteration loop:
   Max. no of iterations          ...  100
   Energy convergence tolerance   ...    1.0e-06 Eh
   Residual convergence tolerance ...    5.0e-06
   Fock matrix cutoff             ...    1.0e-05 Eh
   Max # vectors in DIIS          ...  7
   Start iteration of DIIS        ...  0
   Levelshift                     ...  2.000e-01 Eh
   Damping before turning on DIIS ...  5.000e-01
   Damping after turning on DIIS  ...  0.000e+00

                           *** Turning on DIIS ***
Iter=   0:  ECORR= -1.217838642915  DE=   2.6e-02 RMAX=   1.4e-02
Iter=   1:  ECORR= -1.234568437183  DE=   1.7e-02 RMAX=   4.9e-03
Iter=   2:  ECORR= -1.238809517140  DE=   4.2e-03 RMAX=   2.2e-03
Iter=   3:  ECORR= -1.239916803350  DE=   1.1e-03 RMAX=   8.5e-04
Iter=   4:  ECORR= -1.239992874453  DE=   7.6e-05 RMAX=   2.4e-04
Iter=   5:  ECORR= -1.239982947119  DE=   9.9e-06 RMAX=   5.5e-05
Iter=   6:  ECORR= -1.239980195626  DE=   2.8e-06 RMAX=   8.6e-06
Iter=   7:  ECORR= -1.239980759714  DE=   5.6e-07 RMAX=   1.1e-06 => CONVERGED

Finished the DLPNO-MP2 iterations in 26.2 sec.

LMP2 correlation energy (all non-screened pairs)      ...     -1.239980759714 Eh
Semicanonical PNO correction to energy                ...     -0.000053896496 Eh
Sum of pair energies estimated for screened out pairs ...      0.000000000000 Eh
                                                         -----------------------
Total:                                                ...     -1.240034656210 Eh

------------------------------------------------------
 DLPNO-MP2 CORRELATION ENERGY:      -1.240034656210 Eh
------------------------------------------------------

TIMINGS FOR DLPNO-MP2:
Localization                             ...        0.474 sec
Differential overlap integrals           ...        1.882 sec
Prescreening                             ...        0.272 sec
Map setup                                ...        0.005 sec
(ia|v) trafo                             ...        1.151 sec
Semicanonical amplitudes                 ...        1.775 sec
PNO construction                         ...        0.223 sec
DLPNO-MP2 iterations                     ...       26.183 sec
                                             ----------------
Total time                                         33.944 sec


---------------------------------------
MP2 TOTAL ENERGY:     -232.105756054 Eh
---------------------------------------

Maximum memory used throughout the entire MP2-calculation: 167.5 MB

-------------------------   --------------------
FINAL SINGLE POINT ENERGY      -232.105756054192
-------------------------   --------------------


                            ***************************************
                            *     ORCA property calculations      *
                            ***************************************


  WARNING: The energy has been calculated at the MP2 level but the densities
           used in the property calculations are still SCF densities
           MP2 response densities have not been calculated 
           use %mp2 Density relaxed end
           or  %mp2 Density unrelaxed end

                                    ---------------------
                                    Active property flags
                                    ---------------------
   (+) Dipole Moment


------------------------------------------------------------------------------
                       ORCA ELECTRIC PROPERTIES CALCULATION
------------------------------------------------------------------------------

Dipole Moment Calculation                       ... on
Quadrupole Moment Calculation                   ... off
Polarizability Calculation                      ... off
GBWName                                         ... benzene_lw1x-no-diffuse-on-c_Compound_4.gbw
Electron density                                ... benzene_lw1x-no-diffuse-on-c_Compound_4.scfp
The origin for moment calculation is the CENTER OF MASS  = ( 0.000000,  0.000000  0.000000)

-------------
DIPOLE MOMENT
-------------
                                X             Y             Z
Electronic contribution:      0.00000       0.00000       0.00000
Nuclear contribution   :      0.00000       0.00000       0.00000
                        -----------------------------------------
Total Dipole Moment    :      0.00000       0.00000       0.00000
                        -----------------------------------------
Magnitude (a.u.)       :      0.00000
Magnitude (Debye)      :      0.00000



--------------------
Rotational spectrum 
--------------------
 
Rotational constants in cm-1:     0.191043     0.191043     0.095521 
Rotational constants in MHz :  5727.313348  5727.312438  2863.656447 

 Dipole components along the rotational axes: 
x,y,z [a.u.] :     0.000000     0.000000     0.000000 
x,y,z [Debye]:     0.000001     0.000000     0.000001 

 

Timings for individual modules:

Sum of individual times         ...       58.069 sec (=   0.968 min)
GTO integral calculation        ...        3.856 sec (=   0.064 min)   6.6 %
Relativistic integrals          ...        4.263 sec (=   0.071 min)   7.3 %
SCF iterations                  ...       11.546 sec (=   0.192 min)  19.9 %
MP2 module                      ...       38.404 sec (=   0.640 min)  66.1 %
================================================================================

----- Orbital basis set information -----
Your calculation utilizes the basis: def2-SVP
   F. Weigend and R. Ahlrichs, Phys. Chem. Chem. Phys. 7, 3297 (2005).



----------------------------------------------------------------------------------------------
                                        COMPOUND BLOCK                                        
                                     SUMMARY OF VARIABLES                                     
----------------------------------------------------------------------------------------------

Variable Name                                           Value             Evaluation String
-------------                                           -----             -----------------
HF_DZ                                    |            -230.78019237    |  
EC_DZ                                    |              -1.04274574    |  
CC_DZ                                    |              -1.00716504    |  EC_DZ-T_DZ
T_DZ                                     |              -0.03558070    |  
HF_TZ                                    |            -230.79204355    |  
EC_TZ                                    |              -1.08716810    |  
CC_TZ                                    |              -1.03574638    |  EC_TZ-T_TZ
T_TZ                                     |              -0.05142173    |  
HF_CBS                                   |            -230.79384088    |  HF_TZ-(HF_TZ-HF_DZ)*3^-5/(3^-5-2^-5)
CC_CBS                                   |              -1.04064434    |  CC_TZ-(CC_TZ-CC_DZ)*3^-4.7405/(3^-4.7405-2^-4.7405)
T_CBS                                    |              -0.06331763    |  T_TZ-(T_TZ-T_DZ)*3^-2.0879/(3^-2.0879-2^-2.0879)
MP_FC                                    |            -231.74460112    |  
MP_FU                                    |            -232.10575605    |  
MP_CV                                    |              -0.36115494    |  MP_FU-MP_FC
LW1X                                     |            -232.25895779    |  HF_CBS+CC_CBS+T_CBS+MP_CV
                             ****ORCA TERMINATED NORMALLY****
TOTAL RUN TIME: 0 days 0 hours 32 minutes 5 seconds 457 msec
