
                                 *****************
                                 * O   R   C   A *
                                 *****************

                                            #,                                       
                                            ###                                      
                                            ####                                     
                                            #####                                    
                                            ######                                   
                                           ########,                                 
                                     ,,################,,,,,                         
                               ,,#################################,,                 
                          ,,##########################################,,             
                       ,#########################################, ''#####,          
                    ,#############################################,,   '####,        
                  ,##################################################,,,,####,       
                ,###########''''           ''''###############################       
              ,#####''   ,,,,##########,,,,          '''####'''          '####       
            ,##' ,,,,###########################,,,                        '##       
           ' ,,###''''                  '''############,,,                           
         ,,##''                                '''############,,,,        ,,,,,,###''
      ,#''                                            '''#######################'''  
     '                                                          ''''####''''         
             ,#######,   #######,   ,#######,      ##                                
            ,#'     '#,  ##    ##  ,#'     '#,    #''#        ######   ,####,        
            ##       ##  ##   ,#'  ##            #'  '#       #        #'  '#        
            ##       ##  #######   ##           ,######,      #####,   #    #        
            '#,     ,#'  ##    ##  '#,     ,#' ,#      #,         ##   #,  ,#        
             '#######'   ##     ##  '#######'  #'      '#     #####' # '####'        



                  #######################################################
                  #                        -***-                        #
                  #          Department of theory and spectroscopy      #
                  #    Directorship and core code : Frank Neese         #
                  #        Max Planck Institute fuer Kohlenforschung    #
                  #                Kaiser Wilhelm Platz 1               #
                  #                 D-45470 Muelheim/Ruhr               #
                  #                      Germany                        #
                  #                                                     #
                  #                  All rights reserved                #
                  #                        -***-                        #
                  #######################################################


                         Program Version 5.0.1 -  RELEASE  -


 With contributions from (in alphabetic order):
   Daniel Aravena         : Magnetic Suceptibility
   Michael Atanasov       : Ab Initio Ligand Field Theory (pilot matlab implementation)
   Alexander A. Auer      : GIAO ZORA, VPT2 properties, NMR spectrum
   Ute Becker             : Parallelization
   Giovanni Bistoni       : ED, misc. LED, open-shell LED, HFLD
   Martin Brehm           : Molecular dynamics
   Dmytro Bykov           : SCF Hessian
   Vijay G. Chilkuri      : MRCI spin determinant printing, contributions to CSF-ICE
   Dipayan Datta          : RHF DLPNO-CCSD density
   Achintya Kumar Dutta   : EOM-CC, STEOM-CC
   Dmitry Ganyushin       : Spin-Orbit,Spin-Spin,Magnetic field MRCI
   Miquel Garcia          : C-PCM and meta-GGA Hessian, CC/C-PCM, Gaussian charge scheme
   Yang Guo               : DLPNO-NEVPT2, F12-NEVPT2, CIM, IAO-localization
   Andreas Hansen         : Spin unrestricted coupled pair/coupled cluster methods
   Benjamin Helmich-Paris : MC-RPA, TRAH-SCF, COSX integrals
   Lee Huntington         : MR-EOM, pCC
   Robert Izsak           : Overlap fitted RIJCOSX, COSX-SCS-MP3, EOM
   Marcus Kettner         : VPT2
   Christian Kollmar      : KDIIS, OOCD, Brueckner-CCSD(T), CCSD density, CASPT2, CASPT2-K
   Simone Kossmann        : Meta GGA functionals, TD-DFT gradient, OOMP2, MP2 Hessian
   Martin Krupicka        : Initial AUTO-CI
   Lucas Lang             : DCDCAS
   Marvin Lechner         : AUTO-CI (C++ implementation), FIC-MRCC
   Dagmar Lenk            : GEPOL surface, SMD
   Dimitrios Liakos       : Extrapolation schemes; Compound Job, initial MDCI parallelization
   Dimitrios Manganas     : Further ROCIS development; embedding schemes
   Dimitrios Pantazis     : SARC Basis sets
   Anastasios Papadopoulos: AUTO-CI, single reference methods and gradients
   Taras Petrenko         : DFT Hessian,TD-DFT gradient, ASA, ECA, R-Raman, ABS, FL, XAS/XES, NRVS
   Peter Pinski           : DLPNO-MP2, DLPNO-MP2 Gradient
   Christoph Reimann      : Effective Core Potentials
   Marius Retegan         : Local ZFS, SOC
   Christoph Riplinger    : Optimizer, TS searches, QM/MM, DLPNO-CCSD(T), (RO)-DLPNO pert. Triples
   Tobias Risthaus        : Range-separated hybrids, TD-DFT gradient, RPA, STAB
   Michael Roemelt        : Original ROCIS implementation
   Masaaki Saitow         : Open-shell DLPNO-CCSD energy and density
   Barbara Sandhoefer     : DKH picture change effects
   Avijit Sen             : IP-ROCIS
   Kantharuban Sivalingam : CASSCF convergence, NEVPT2, FIC-MRCI
   Bernardo de Souza      : ESD, SOC TD-DFT
   Georgi Stoychev        : AutoAux, RI-MP2 NMR, DLPNO-MP2 response
   Willem Van den Heuvel  : Paramagnetic NMR
   Boris Wezisla          : Elementary symmetry handling
   Frank Wennmohs         : Technical directorship


 We gratefully acknowledge several colleagues who have allowed us to
 interface, adapt or use parts of their codes:
   Stefan Grimme, W. Hujo, H. Kruse, P. Pracht,  : VdW corrections, initial TS optimization,
                  C. Bannwarth, S. Ehlert          DFT functionals, gCP, sTDA/sTD-DF
   Ed Valeev, F. Pavosevic, A. Kumar             : LibInt (2-el integral package), F12 methods
   Garnet Chan, S. Sharma, J. Yang, R. Olivares  : DMRG
   Ulf Ekstrom                                   : XCFun DFT Library
   Mihaly Kallay                                 : mrcc  (arbitrary order and MRCC methods)
   Jiri Pittner, Ondrej Demel                    : Mk-CCSD
   Frank Weinhold                                : gennbo (NPA and NBO analysis)
   Christopher J. Cramer and Donald G. Truhlar   : smd solvation model
   Lars Goerigk                                  : TD-DFT with DH, B97 family of functionals
   V. Asgeirsson, H. Jonsson                     : NEB implementation
   FAccTs GmbH                                   : IRC, NEB, NEB-TS, DLPNO-Multilevel, CI-OPT
                                                   MM, QMMM, 2- and 3-layer-ONIOM, Crystal-QMMM,
                                                   LR-CPCM, SF, NACMEs, symmetry and pop. for TD-DFT,
                                                   nearIR, NL-DFT gradient (VV10), updates on ESD,
                                                   ML-optimized integration grids
   S Lehtola, MJT Oliveira, MAL Marques          : LibXC Library
   Liviu Ungur et al                             : ANISO software


 Your calculation uses the libint2 library for the computation of 2-el integrals
 For citations please refer to: http://libint.valeyev.net

 Your ORCA version has been built with support for libXC version: 5.1.0
 For citations please refer to: https://tddft.org/programs/libxc/

 This ORCA versions uses:
   CBLAS   interface :  Fast vector & matrix operations
   LAPACKE interface :  Fast linear algebra routines
   SCALAPACK package :  Parallel linear algebra routines
   Shared memory     :  Shared parallel matrices
   BLAS/LAPACK       :  OpenBLAS 0.3.15  USE64BITINT DYNAMIC_ARCH NO_AFFINITY SkylakeX SINGLE_THREADED
        Core in use  :  SkylakeX
   Copyright (c) 2011-2014, The OpenBLAS Project




################################################################################


                                COMPOUND JOB MainJOB 
Basename: c2h4_lw1x-no-diffuse-on-c_Compound_0

################################################################################

================================================================================
                                       INPUT FILE
================================================================================
NAME = c2h4_lw1x-no-diffuse-on-c_Compound_0.inp
|  1> %Maxcore 2000
|  2>  %Pal nprocs 5 End
|  3>  
|  4>  * xyz 0 1
|  5>  C        0.000000    0.000000    0.662598 
|  6>  H        0.000000    0.920944    1.232046 
|  7>  H       -0.000000   -0.920944    1.232046 
|  8>  C        0.000000    0.000000   -0.662598 
|  9>  H       -0.000000   -0.920944   -1.232046 
| 10>  H        0.000000    0.920944   -1.232046 
| 11>  *
| 12>  
| 13> 
| 14>                          ****END OF INPUT****
================================================================================
================================================================================

----- Orbital basis set information -----
Your calculation utilizes the basis: def2-SVP
   F. Weigend and R. Ahlrichs, Phys. Chem. Chem. Phys. 7, 3297 (2005).



################################################################################


                                COMPOUND JOB  1 
Basename: c2h4_lw1x-no-diffuse-on-c_Compound_1
NOTE: please remember that MaxCore and PAL settings will be ignored.

################################################################################

================================================================================
                                       INPUT FILE
================================================================================
NAME = c2h4_lw1x-no-diffuse-on-c_Compound_1.inp
|  1>     ! DefGrid3 RIJCOSX TightPNO DLPNO-CCSD(T1)-F12 MiniPrint NoPop
|  2>     %Basis
|  3>       Basis        "maug-cc-pV(D+d)Z"
|  4>       AuxJ         "AutoAux"
|  5>       AuxC         "AutoAux"
|  6>       CABS         "AutoAux"
|  7>       NewGTO     C "cc-pVDZ" End
|  8>       NewAuxjGTO C "AutoAux" End
|  9>       NewAuxcGTO C "AutoAux" End
| 10>       NewCabsGTO C "AutoAux" End
| 11>     End
| 12> 
| 13>                          ****END OF INPUT****
================================================================================
Warning! AutoAux has not been tested for CABS - use at your own risk!
================================================================================

----- Orbital basis set information -----
Your calculation utilizes the basis: jun-cc-pV(D+d)Z 
  E. Papajak, D. G. Truhlar, J. Chem. Theory Comput. 7, 10-18 (2011).

The basis set includes element-specific modifications.

Your calculation utilizes the basis: cc-pVDZ 
       H, B-Ne : Obtained from the ccRepo (grant-hill.group.shef.ac.uk/ccrepo) Feb. 2017
                 T. H. Dunning, Jr., J. Chem. Phys. 90, 1007 (1989)
            He : Obtained from the ccRepo (grant-hill.group.shef.ac.uk/ccrepo) Feb. 2017
                 D. E. Woon, T. H. Dunning, Jr., J. Chem. Phys. 100, 2975 (1994)
  Li-Be, Na-Mg : Obtained from the ccRepo (grant-hill.group.shef.ac.uk/ccrepo) Feb. 2017
                 B. P. Prascher, D. E. Woon, K. A. Peterson, T. H. Dunning, Jr., A. K. Wilson, Theor. Chem. Acc. 128, 69 (2011)
         Al-Ar : Obtained from the ccRepo (grant-hill.group.shef.ac.uk/ccrepo) Feb. 2017
                 D. E. Woon, T. H. Dunning, Jr., J. Chem. Phys. 98, 1358 (1993)
            Ca : Obtained from the Peterson Research Group Website (tyr0.chem.wsu.edu/~kipeters) Feb. 2017
                 J. Koput, K. A. Peterson, J. Phys. Chem. 106, 9595 (2002)
         Sc-Zn : Obtained from the ccRepo (grant-hill.group.shef.ac.uk/ccrepo) Feb. 2017
                 N. B. Balabanov, K. A. Peterson, J. Chem. Phys. 123, 064107 (2005)
                 N. B. Balabanov, K. A. Peterson, J. Chem. Phys. 125, 074110 (2006)
         Ga-Kr : Obtained from the ccRepo (grant-hill.group.shef.ac.uk/ccrepo) Feb. 2017
                 A. K. Wilson, D. E. Woon, K. A. Peterson, T. H. Dunning, Jr., J. Chem. Phys. 110, 7667 (1999)

----- AuxJ basis set information -----
Your calculation utilizes the AutoAux generation procedure.
  G. L. Stoychev, A. A. Auer, F. Neese, J. Chem. Theory Comput. 13, 554 (2017)

The basis set includes element-specific modifications.

----- AuxC basis set information -----
Your calculation utilizes the AutoAux generation procedure.
  G. L. Stoychev, A. A. Auer, F. Neese, J. Chem. Theory Comput. 13, 554 (2017)

The basis set includes element-specific modifications.

----- CABS information -----
Your calculation utilizes the AutoAux generation procedure.
  G. L. Stoychev, A. A. Auer, F. Neese, J. Chem. Theory Comput. 13, 554 (2017)

The basis set includes element-specific modifications.


                    <<< The CABS basis set will be decontracted >>>

================================================================================
                                        WARNINGS
                       Please study these warnings very carefully!
================================================================================


WARNING: Post HF methods need fully converged wavefunctions
  ===> : Setting SCFConvForced true
         You can overwrite this default with %scf ConvForced false 


WARNING: MDCI localization with Augmented Hessian Foster-Boys
  ===> : Switching off randomization!

INFO   : the flag for use of the SHARK integral package has been found!


                       ****************************
                       * Single Point Calculation *
                       ****************************

---------------------------------
CARTESIAN COORDINATES (ANGSTROEM)
---------------------------------
  C      0.000000    0.000000    0.662598
  H      0.000000    0.920944    1.232046
  H     -0.000000   -0.920944    1.232046
  C      0.000000    0.000000   -0.662598
  H     -0.000000   -0.920944   -1.232046
  H      0.000000    0.920944   -1.232046

----------------------------
CARTESIAN COORDINATES (A.U.)
----------------------------
  NO LB      ZA    FRAG     MASS         X           Y           Z
   0 C     6.0000    0    12.011    0.000000    0.000000    1.252129
   1 H     1.0000    0     1.008    0.000000    1.740332    2.328230
   2 H     1.0000    0     1.008   -0.000000   -1.740332    2.328230
   3 C     6.0000    0    12.011    0.000000    0.000000   -1.252129
   4 H     1.0000    0     1.008   -0.000000   -1.740332   -2.328230
   5 H     1.0000    0     1.008    0.000000    1.740332   -2.328230



           ************************************************************
           *        Program running with 5 parallel MPI-processes     *
           *              working on a common directory               *
           ************************************************************
------------------------------------------------------------------------------
                   ___                                                        
                  /   \      - P O W E R E D   B Y -                         
                 /     \                                                     
                 |  |  |   _    _      __       _____    __    __             
                 |  |  |  | |  | |    /  \     |  _  \  |  |  /  |          
                  \  \/   | |  | |   /    \    | | | |  |  | /  /          
                 / \  \   | |__| |  /  /\  \   | |_| |  |  |/  /          
                |  |  |   |  __  | /  /__\  \  |    /   |      \           
                |  |  |   | |  | | |   __   |  |    \   |  |\   \          
                \     /   | |  | | |  |  |  |  | |\  \  |  | \   \       
                 \___/    |_|  |_| |__|  |__|  |_| \__\ |__|  \__/        
                                                                              
                      - O R C A' S   B I G   F R I E N D -                    
                                      &                                       
                       - I N T E G R A L  F E E D E R -                       
                                                                              
 v1 FN, 2020, v2 2021                                                         
------------------------------------------------------------------------------


Reading SHARK input file c2h4_lw1x-no-diffuse-on-c_Compound_1.SHARKINP.tmp ... ok
----------------------
SHARK INTEGRAL PACKAGE
----------------------

Number of atoms                             ...      6
Number of basis functions                   ...     48
Number of shells                            ...     24
Maximum angular momentum                    ...      2
Integral batch strategy                     ... SHARK/LIBINT Hybrid
RI-J (if used) integral strategy            ... SPLIT-RIJ (Revised 2003 algorithm where possible)
Printlevel                                  ...      1
Contraction scheme used                     ... SEGMENTED contraction
Coulomb Range Separation                    ... NOT USED
Exchange Range Separation                   ... NOT USED
Finite Nucleus Model                        ... NOT USED
Auxiliary Coulomb fitting basis             ... AVAILABLE
   # of basis functions in Aux-J            ...    302
   # of shells in Aux-J                     ...    122
   Maximum angular momentum in Aux-J        ...      3
Auxiliary J/K fitting basis                 ... NOT available
Auxiliary Correlation fitting basis         ... AVAILABLE
   # of basis functions in Aux-C            ...    302
   # of shells in Aux-C                     ...    122
   Maximum angular momentum in Aux-C        ...      3
Auxiliary 'external' fitting basis          ... NOT available
Integral threshold                          ...     1.000000e-10
Primitive cut-off                           ...     1.000000e-11
Primitive pair pre-selection threshold      ...     1.000000e-11

Calculating pre-screening integrals         ... done (  0.0 sec) Dimension = 24
Organizing shell pair data                  ... done (  0.0 sec)
Shell pair information
Total number of shell pairs                 ...       300
Shell pairs after pre-screening             ...       300
Total number of primitive shell pairs       ...      2210
Primitive shell pairs kept                  ...      1889
          la=0 lb=0:    105 shell pairs
          la=1 lb=0:    112 shell pairs
          la=1 lb=1:     36 shell pairs
          la=2 lb=0:     28 shell pairs
          la=2 lb=1:     16 shell pairs
          la=2 lb=2:      3 shell pairs

Calculating one electron integrals          ... done (  0.0 sec)
Calculating RI/J V-Matrix + Cholesky decomp.... done (  0.1 sec)
Calculating RI/C V-Matrix + Cholesky decomp.... done (  0.1 sec)
Calculating Nuclear repulsion               ... done (  0.0 sec) ENN=     33.481732371417 Eh

SHARK setup successfully completed in   0.3 seconds

Maximum memory used throughout the entire GTOINT-calculation: 12.0 MB


           ************************************************************
           *        Program running with 5 parallel MPI-processes     *
           *              working on a common directory               *
           ************************************************************

Diagonalization of the overlap matrix:
Smallest eigenvalue                        ... 4.667e-03
Time for diagonalization                   ...    0.015 sec
Threshold for overlap eigenvalues          ... 1.000e-08
Number of eigenvalues below threshold      ... 0
Time for construction of square roots      ...    0.016 sec
Total time needed                          ...    0.032 sec

Time for model grid setup =    0.091 sec

Loading Hartree-Fock densities                     ... done
Calculating cut-offs                               ... done
Initializing the effective Hamiltonian             ... done
Setting up the integral package (SHARK)            ... done
Starting the Coulomb interaction                   ... done (   0.1 sec)
Reading the grid                                   ... done
Mapping shells                                     ... done
Starting the XC term evaluation                    ... done (   0.0 sec)
Transforming the Hamiltonian                       ... done (   0.0 sec)
Diagonalizing the Hamiltonian                      ... done (   0.0 sec)
Back transforming the eigenvectors                 ... done (   0.0 sec)
Now organizing SCF variables                       ... done
--------------------
COSX GRID GENERATION
--------------------

GRIDX 1
-------
General Integration Accuracy     IntAcc      ... 4.020
Radial Grid Type                 RadialGrid  ... OptM3 with GC (2021)
Angular Grid (max. ang.)         AngularGrid ... 2 (Lebedev-110)
Angular grid pruning method      GridPruning ... 4 (adaptive)
Weight generation scheme         WeightScheme... Becke
Basis function cutoff            BFCut       ... 1.0000e-10
Integration weight cutoff        WCut        ... 1.0000e-14
Angular grids for H and He will be reduced by one unit
Partially contracted basis set               ... on
Rotationally invariant grid construction     ... off

Total number of grid points                  ...     6900
Total number of batches                      ...      111
Average number of points per batch           ...       62
Average number of grid points per atom       ...     1150
UseSFitting                                  ... on

GRIDX 2
-------
General Integration Accuracy     IntAcc      ... 4.338
Radial Grid Type                 RadialGrid  ... OptM3 with GC (2021)
Angular Grid (max. ang.)         AngularGrid ... 3 (Lebedev-194)
Angular grid pruning method      GridPruning ... 4 (adaptive)
Weight generation scheme         WeightScheme... Becke
Basis function cutoff            BFCut       ... 1.0000e-10
Integration weight cutoff        WCut        ... 1.0000e-14
Angular grids for H and He will be reduced by one unit
Partially contracted basis set               ... on
Rotationally invariant grid construction     ... off

Total number of grid points                  ...    15208
Total number of batches                      ...      241
Average number of points per batch           ...       63
Average number of grid points per atom       ...     2535
UseSFitting                                  ... on

GRIDX 3
-------
General Integration Accuracy     IntAcc      ... 4.871
Radial Grid Type                 RadialGrid  ... OptM3 with GC (2021)
Angular Grid (max. ang.)         AngularGrid ... 4 (Lebedev-302)
Angular grid pruning method      GridPruning ... 4 (adaptive)
Weight generation scheme         WeightScheme... Becke
Basis function cutoff            BFCut       ... 1.0000e-10
Integration weight cutoff        WCut        ... 1.0000e-14
Angular grids for H and He will be reduced by one unit
Partially contracted basis set               ... on
Rotationally invariant grid construction     ... off

Total number of grid points                  ...    30622
Total number of batches                      ...      482
Average number of points per batch           ...       63
Average number of grid points per atom       ...     5104
UseSFitting                                  ... on

Time for X-Grid setup             =    0.509 sec

 re-compute Schwartz prescreening matrix in partically contracted basis (1) ...done (   0.143 sec)
--------------
SCF ITERATIONS
--------------
ITER       Energy         Delta-E        Max-DP      RMS-DP      [F,P]     Damp
               ***  Starting incremental Fock matrix formation  ***
  0    -77.9267828767   0.000000000000 0.05077457  0.00302302  0.1878284 0.7000
  1    -77.9664515206  -0.039668643864 0.03893685  0.00235821  0.1262560 0.7000
                               ***Turning on DIIS***
  2    -77.9909550866  -0.024503566038 0.08410014  0.00512093  0.0780042 0.0000
  3    -77.8589602538   0.131994832782 0.01489302  0.00111211  0.0243819 0.0000
  4    -78.0204151320  -0.161454878197 0.00281102  0.00024602  0.0046122 0.0000
                      *** Initiating the SOSCF procedure ***
                           *** Shutting down DIIS ***
                      *** Re-Reading the Fockian *** 
                      *** Removing any level shift *** 
ITER      Energy       Delta-E        Grad      Rot      Max-DP    RMS-DP
  5    -78.03744316  -0.0170280294  0.001378  0.001378  0.000845  0.000090
               *** Restarting incremental Fock matrix formation ***
  6    -78.04014233  -0.0026991733  0.000332  0.000286  0.000296  0.000034
                 **** Energy Check signals convergence ****
              ***Rediagonalizing the Fockian in SOSCF/NRSCF***

               *****************************************************
               *                     SUCCESS                       *
               *           SCF CONVERGED AFTER   7 CYCLES          *
               *****************************************************

Old exchange energy                            =    -11.754474425 Eh
New exchange energy                            =    -11.754495810 Eh
Exchange energy change after final integration =     -0.000021385 Eh
Total energy after final integration           =    -78.040164331 Eh
Final COS-X integration done in                =     0.207 sec
Total Energy       :          -78.04016433 Eh           -2123.58083 eV
  Last Energy change         ...   -6.1141e-07  Tolerance :   1.0000e-06
  Last MAX-Density change    ...    8.8818e-16  Tolerance :   1.0000e-05
             **** THE GBW FILE WAS UPDATED (c2h4_lw1x-no-diffuse-on-c_Compound_1.gbw) ****
             **** DENSITY c2h4_lw1x-no-diffuse-on-c_Compound_1.scfp WAS UPDATED ****
             **** ENERGY FILE WAS UPDATED (c2h4_lw1x-no-diffuse-on-c_Compound_1.en.tmp) ****
             **** THE GBW FILE WAS UPDATED (c2h4_lw1x-no-diffuse-on-c_Compound_1.gbw) ****
             **** DENSITY c2h4_lw1x-no-diffuse-on-c_Compound_1.scfp WAS UPDATED ****
----------------
ORBITAL ENERGIES
----------------

  NO   OCC          E(Eh)            E(eV) 
   0   2.0000     -11.234654      -305.7105 
   1   2.0000     -11.232929      -305.6635 
   2   2.0000      -1.033897       -28.1338 
   3   2.0000      -0.789550       -21.4847 
   4   2.0000      -0.639352       -17.3976 
   5   2.0000      -0.585412       -15.9299 
   6   2.0000      -0.501496       -13.6464 
   7   2.0000      -0.375941       -10.2299 
   8   0.0000       0.169976         4.6253 
   9   0.0000       0.204020         5.5517 
  10   0.0000       0.232676         6.3314 
  11   0.0000       0.238560         6.4915 
  12   0.0000       0.303934         8.2705 
  13   0.0000       0.465191        12.6585 
  14   0.0000       0.577851        15.7241 
  15   0.0000       0.611678        16.6446 
  16   0.0000       0.687425        18.7058 
  17   0.0000       0.709661        19.3108 
  18   0.0000       0.785559        21.3761 
  19   0.0000       0.808770        22.0077 
  20   0.0000       0.860344        23.4112 
  21   0.0000       0.935795        25.4643 
  22   0.0000       0.977007        26.5857 
  23   0.0000       1.009735        27.4763 
  24   0.0000       1.130726        30.7686 
  25   0.0000       1.237305        33.6688 
  26   0.0000       1.245670        33.8964 
  27   0.0000       1.266561        34.4649 
  28   0.0000       1.295203        35.2443 
  29   0.0000       1.598289        43.4917 
  30   0.0000       1.739187        47.3257 
  31   0.0000       1.756675        47.8016 
  32   0.0000       1.818378        49.4806 
  33   0.0000       1.855959        50.5032 
  34   0.0000       1.867591        50.8197 
  35   0.0000       1.915132        52.1134 
  36   0.0000       1.969285        53.5870 
  37   0.0000       1.983650        53.9779 
  38   0.0000       2.231797        60.7303 
  39   0.0000       2.260702        61.5168 
  40   0.0000       2.371536        64.5328 
  41   0.0000       2.447898        66.6107 
  42   0.0000       2.514673        68.4277 
  43   0.0000       2.650056        72.1117 
  44   0.0000       2.709498        73.7292 
  45   0.0000       2.824096        76.8476 
  46   0.0000       3.128369        85.1272 
  47   0.0000       3.410099        92.7935 
Total SCF time: 0 days 0 hours 0 min 4 sec 

Maximum memory used throughout the entire SCF-calculation: 43.9 MB


           ************************************************************
           *        Program running with 5 parallel MPI-processes     *
           *              working on a common directory               *
           ************************************************************


------------------------------------------------------------------------------- 
                              ORCA-MATRIX DRIVEN CI                            
------------------------------------------------------------------------------- 


Wavefunction type
-----------------
Correlation treatment                      ...      CCSD     
Single excitations                         ... ON
Orbital optimization                       ... OFF
Calculation of Z vector                    ... OFF
Calculation of Brueckner orbitals          ... OFF
Perturbative triple excitations            ... ON
Calculation of F12 correction              ... ON
   Using RI for F12 correction             ... ON
   GSO occupation number cut-off           ... 0.000e+00
Frozen core treatment                      ... chemical core (4 el)
Reference Wavefunction                     ... RHF
  Internal Orbitals:     2 ...    7 (  6 MO's/ 12 electrons)
  Virtual  Orbitals:     8 ...   47 ( 40 MO's              )
Number of AO's                             ...     48
Number of electrons                        ...     16
Number of correlated electrons             ...     12

Algorithmic settings
--------------------
Integral transformation                    ... All integrals via the RI transformation
K(C) Formation                             ... RI-DLPNO
   PNO-Integral Storage                    ... ON DISK
   PNO occupation number cut-off           ... 1.000e-07
   Singles PNO occupation number cut-off   ... 3.000e-09
   PNO Mulliken prescreening cut-off       ... 1.000e-03
   Domain cut-off (Mulliken population)    ... 1.000e-03
   PNO Normalization                       ...    1
Maximum number of iterations               ...        50
Convergence tolerance (max. residuum)      ... 2.500e-05
Level shift for amplitude update           ... 2.000e-01
Maximum number of DIIS vectors             ...         7
DIIS turned on at iteration                ...         0
Damping before turning on DIIS             ...     0.500
Damping after turning on DIIS              ...     0.000
Pair specific amplitude update             ... OFF
Natural orbital iterations                 ... OFF
Perturbative natural orbital generation    ... OFF
Printlevel                                 ... 2

Singles Fock matrix elements calculated using PNOs.

Memory handling:
----------------
Maximum memory for working arrays          ...   2000 MB
Data storage in matrix containers          ... UNCOMPRESSED
Data type for integral storage             ... DOUBLE
In-Core Storage of quantities:
   Amplitudes+Sigma Vector      ... NO
   J+K operators                ... NO
   DIIS vectors                 ... NO
   3-external integrals         ... NO
   4-external integrals         ... NO

Localization treatment:
-----------------------
Localization option                        ...    6
Localization threshhold                    ... -1.0e+00
Using relative localization threshhold     ... 1.0e-08
Neglect threshold for strong pairs         ... 1.000e-05 Eh
Prescreening threshold for very weak pairs ... 1.000e-07 Eh

Initializing the integral package          ... done
Localizing the valence orbitals
------------------------------------------------------------------------------
                           ORCA ORBITAL LOCALIZATION
------------------------------------------------------------------------------

Input orbitals are from                  ... c2h4_lw1x-no-diffuse-on-c_Compound_1.gbw
Output orbitals are to                   ... c2h4_lw1x-no-diffuse-on-c_Compound_1.loc
Max. number of iterations                ... 128
Localizations seeded randomly            ... off
Convergence tolerance                    ... 1.000e-06
Using relative localization threshhold   ... 1.000e-08
Treshold for strong local MOs            ... 9.500e-01
Treshold for bond MOs                    ... 8.500e-01
Operator                                 ... 0
Orbital range for localization           ... 2 to 7
Localization criterion                   ... FOSTER-BOYS (AUGMENTED HESSIAN)
Doing the dipole integrals     ... o.k.
Initial value of the localization sum :    15.898288
ITERATION   0 : L=   21.4819838117 DL=  5.58e+00 (AVERGE_DL)=    0.6101199709 
ITERATION   1 : L=   22.1710138434 DL=  6.89e-01 (AVERGE_DL)=    0.2143253029 
ITERATION   2 : L=   22.1716865135 DL=  6.73e-04 (AVERGE_DL)=    0.0066966167 
ITERATION   3 : L=   22.1716882887 DL=  1.78e-06 (AVERGE_DL)=    0.0003440205 
ITERATION   4 : L=   22.1716882931 DL=  4.31e-09 (AVERGE_DL)=    0.0000169496 
LOCALIZATION SUM CONVERGED

------------------------------------------------------
AUGMENTED HESSIAN OPTIMIZATION OF FOSTER-BOYS ORBITALS
------------------------------------------------------

Spin operator:           0
Orbital window:          2 to 7
Number of iterations:    128
Gradient tolerance:      1.000e-06
Number of pairs:         15
Davidson threshold:      2000
Diagonalization method:  LAPACK
Iter:    0   L: 22.1716882931   Grad. norm: 4.382031e-05
   *** Likely close to a maximum now. ***
       Augmented Hessian eigenvalues:  1.00e-10 -5.49e+00 -1.83e+01 -1.89e+01 ... 
Iter:    1   L: 22.1716882931   Grad. norm: 5.904612e-12
LOCALIZATION HAS CONVERGED.

Eigenvalues of the Hessian:
  0 -5.493e+00
  1 -1.827e+01
  2 -1.891e+01
  3 -1.994e+01
  4 -2.093e+01
  5 -2.261e+01
  6 -2.270e+01
  7 -2.362e+01
  8 -2.398e+01
  9 -2.404e+01
    ...


------------------------------------------------------------------------------- 
                    LOCALIZED MOLECULAR ORBITAL COMPOSITIONS                   
------------------------------------------------------------------------------- 

The Mulliken populations for each LMO on each atom are computed
The LMO`s will be ordered according to atom index and type
  (A) Strongly localized MO`s have populations of >=0.950 on one atom
  (B) Two center bond orbitals have populations of >=0.850 on two atoms
  (C) Other MO`s are considered to be `delocalized`

FOUND  -   0 strongly local MO`s
       -   6 two center bond MO`s
       -   0 significantly delocalized MO`s

Bond-like localized orbitals:
MO   7:   5H  -   0.490389  and   3C  -   0.518052
MO   6:   4H  -   0.490389  and   3C  -   0.518052
MO   5:   3C  -   0.504352  and   0C  -   0.504352
MO   4:   3C  -   0.504352  and   0C  -   0.504352
MO   3:   2H  -   0.490389  and   0C  -   0.518052
MO   2:   1H  -   0.490389  and   0C  -   0.518052
Localized MO's were stored in: c2h4_lw1x-no-diffuse-on-c_Compound_1.loc

Localizing the core orbitals
------------------------------------------------------------------------------
                           ORCA ORBITAL LOCALIZATION
------------------------------------------------------------------------------

Input orbitals are from                  ... c2h4_lw1x-no-diffuse-on-c_Compound_1.loc
Output orbitals are to                   ... c2h4_lw1x-no-diffuse-on-c_Compound_1.loc
Max. number of iterations                ... 128
Localizations seeded randomly            ... off
Convergence tolerance                    ... 1.000e-06
Using relative localization threshhold   ... 1.000e-08
Treshold for strong local MOs            ... 9.500e-01
Treshold for bond MOs                    ... 8.500e-01
Operator                                 ... 0
Orbital range for localization           ... 0 to 1
Localization criterion                   ... FOSTER-BOYS (AUGMENTED HESSIAN)
Doing the dipole integrals     ... o.k.
Initial value of the localization sum :     3.135717
ITERATION   0 : L=    3.1357200608 DL=  2.94e-06 (AVERGE_DL)=    0.0017141418 
ITERATION   1 : L=    3.1357200608 DL=  0.00e+00 (AVERGE_DL)=    0.0000000000 
LOCALIZATION SUM CONVERGED

------------------------------------------------------
AUGMENTED HESSIAN OPTIMIZATION OF FOSTER-BOYS ORBITALS
------------------------------------------------------

Spin operator:           0
Orbital window:          0 to 1
Number of iterations:    128
Gradient tolerance:      1.000e-06
Number of pairs:         1
Davidson threshold:      2000
Diagonalization method:  LAPACK
Iter:    0   L: 3.1357200608   Grad. norm: 3.602201e-18
   *** Likely close to a maximum now. ***
       Augmented Hessian eigenvalues:  5.17e-37 -2.51e+01
Iter:    1   L: 3.1357200608   Grad. norm: 3.471000e-34
LOCALIZATION HAS CONVERGED.

Eigenvalues of the Hessian:
  0 -2.509e+01


------------------------------------------------------------------------------- 
                    LOCALIZED MOLECULAR ORBITAL COMPOSITIONS                   
------------------------------------------------------------------------------- 

The Mulliken populations for each LMO on each atom are computed
The LMO`s will be ordered according to atom index and type
  (A) Strongly localized MO`s have populations of >=0.950 on one atom
  (B) Two center bond orbitals have populations of >=0.850 on two atoms
  (C) Other MO`s are considered to be `delocalized`

FOUND  -   2 strongly local MO`s
       -   0 two center bond MO`s
       -   0 significantly delocalized MO`s

Rather strongly localized orbitals:
MO   1:   3C  -   0.999676
MO   0:   0C  -   0.999676
Localized MO's were stored in: c2h4_lw1x-no-diffuse-on-c_Compound_1.loc

Warning: reference  - re-canonicalizations have been set to INT 1 VIRT 1
Warning: internal orbitals are localized - no re-canonicalization of internal orbitals
Warning: UsePNO is turned on - no re-canonicalization of internal and virtual orbitals

--------------------------
CLOSED-SHELL FOCK OPERATOR
--------------------------

Restoring SHARK [2] ... ok
Entering RIJCOSX section for the Fock matrix
Trying to retrieve the full J-matrix              ... done
Updating the Fock matrix                          ... done
Making the frozen core Coulomb matrix             ... SHARKdone
Retrieving the full K-matrix                      ... done
Calculating the frozen core K-matrix              ... done
Updating the Fock matrix                          ... done
Time needed for Fock operator              ...            0.467 sec
Reference energy                           ...    -78.040154201

------------------------------
Initializing F12 data
------------------------------

Mapping basis set                  ... done
Dimension of the orbital basis set  = 48
Dimension of the CABS basis set     = 302
Dimension of the AUX basis set      = 302
Threshold for CABS orthogonalization = 1.000e-08
Will use an exponential correlation factor -Exp(-gamma r12)/gamma (gamma= 1.200) fit to 6 Gaussians 
Correlation factor:   
  NGauss  :          6      
  Gaussian expansion: 
    a(0)=     0.275538291  d(0)=    -0.219608291 
    a(1)=     1.140545861  d(1)=    -0.254494187 
    a(2)=     3.958256986  d(2)=    -0.154545985 
    a(3)=    13.126859124  d(3)=    -0.093273119 
    a(4)=    49.287410844  d(4)=    -0.057916694 
    a(5)=   272.920095267  d(5)=    -0.035942168 
Calculating one-electron matrices                       ... done (      0.1 sec)
Calculating pre-screening matrices:                     ...
       .... 1/r12 done          (      0.2 sec)
       .... f12/r12 done        (      0.1 sec)
       .... f12 done            (      0.1 sec)
       .... f12^2 done          (      0.1 sec)
       .... [f12,[T1,f12]] done (      0.1 sec)
                                                        ... done (      0.6 sec)
Making CABS spaces                                      ... done (      0.0 sec)
Calculating 2-index 2-center F12 integrals              ... 
Two index explicit correlation integrals  op=0          ... done (      0.0 sec) 
Two index explicit correlation integrals  op=1          ... done (      0.0 sec) 
Two index explicit correlation integrals  op=2          ... done (      0.0 sec) 
Two index explicit correlation integrals  op=3          ... done (      0.0 sec) 
Two index explicit correlation integrals  op=4          ... done (      0.0 sec) 
                                                            done (      0.2 sec)

--------------
DLPNO SETTINGS (2015 fully linear scaling implementation)
--------------

TCutMKN:           1.000e-03
TCutPAO:           1.000e-03
TCutPNO:           1.000e-07
TCutPNOSingles:    3.000e-09
TCutEN:            9.700e-01
TCutPAOExt:        1.000e-01
TCutPairs:         1.000e-05
TCutPre:           1.000e-07
TCutOSV:           1.000e-06
TCutDOij:          1.000e-05
TCutDO:            5.000e-03
TCutC:             1.000e-04
TCutCPAO:          1.000e-03
TCutCMO:           1.000e-03
TScaleDOMP2PreScr: 2.000e+00
TScaleMKNMP2PreScr:1.000e+01
TScalePNOMP2PreScr:1.000e+00
PAO overlap thresh 1.000e-08
Using PNOs for Singles Fock computation
Use new domains
Use fully linear algorithm
TCutTNO:           1.000e-09
TCutMP2Pairs:      1.000e-06
TCutDOStrong:      2.000e-03
TCutMKNStrong:     1.000e-02
TCutMKNWeak:       1.000e-01
TCutDOWeak:        4.000e-03
NTCutTNO:          1

--------------------------
Mulliken population of the LMOs            ... ok
Performing proximity check                 ... No problems found
Calculating differential overlap integrals ... ok

--------------------------
ELECTRON PAIR PRESCREENING
--------------------------

Dipole-based pair screening          .... used

   TCutDOij = 1.000000e-05
   TCutPre  = 1.000000e-07
   .... Finished loop over pairs
Total time spent in the prescreening                  ...     0.001 sec
sum of pair energies estimated for screened out pairs ...       0.000000000000 Eh
Thresholds for map construction and integral transformation for crude MP2:
   TCutMKN                    ...     1.0e-02
   TCutDO                     ...     1.0e-02
   TCutPairs                  ...     1.0e-05
   TCutPNO_CrudeMP2           ...     1.0e-07
   TCutPNOSingles_CrudeMP2    ...     3.0e-09
--------------------------------
LOCAL RI TRANSFORMATION (IAVPAO)
--------------------------------

Orbital window:       2 to 7
Number of PAOs:      48
Basis functions:     48 (24 shells)
Aux. functions:     302 (122 shells)
Use SHARK:           on

Processing maps (0.0 sec)
Average map sizes:
   Aux shells -> MOs               6.0
   Aux shells -> PAOs             48.0
   MOs        -> AO shells        24.0
   PAOs       -> AO shells        24.0

Calculating integrals (0.2 sec, 0.667 MB)
Sorting integrals (0.0 sec, 0.664 MB)
Total time for the integral transformation: 0.2 sec
--------------------------------
INITIAL GUESS AND PNO GENERATION
--------------------------------

PNO truncation parameters                   .... 
    PAOOverlapThresh   =        1.000e-08

    TCutPairs          =        1.000e-05
    TCutPNO            =        1.000e-07
    TCutPNOSingles     =        3.000e-09
    TCutMP2Pairs       =        1.000e-06
    TCutMKN            =        1.000e-02
    TCutDO             =        1.000e-02

Pair selection                          .... not used
Type of local MP2 treatment                 .... semi-local MP2
Strategy for PNO selection                  .... occupation number selection
Pair density normalization                  .... MP2 norm
Spin component scaling                      .... not used

   .... Finished loop over pairs
Making pair pair interaction lists          ... done

                       ===========================
                         21 OF   21 PAIRS ARE KEPT CCSD PAIRS
                          0 OF   21 PAIRS ARE KEPT MP2 PAIRS FOR (T)
                          0 OF   21 PAIRS ARE SKIPPED
                       ===========================

Total time spent in the initial guess                 ...     0.028 sec
SL-MP2 correlation energy (all non-screened pairs)    ...      -0.264657421090 Eh

Initial PNO correlation energy                        ...      -0.264638460723 Eh
sum of pair energies prescreened and skipped MP2 pairs...       0.000000000000 Eh
sum of pair energies of crude MP2 skipped pairs only  ...       0.000000000000 Eh
sum of MP2 pair energies for pairs that were not kept ...       0.000000000000 Eh
sum of PNO error estimates for the kept pairs         ...      -0.000018960367 Eh
                                                          --------------------
sum of all corrections                                         -0.000018960367
Initial total correlation energy                               -0.264657421090
Thresholds for map construction and integral transformation for fine MP2 and CCSD(T) calculation:
   TCutMKN   ...     1.0e-03
   TCutDO    ...     5.0e-03
   TCutPairs ...     1.0e-05
   TCutCMO   ...     1.0e-03
   TCutCPAO  ...     1.0e-03

Thresholds for map construction and integral transformation for strong Triples:
   TCutMKN   ...     1.0e-02
   TCutDO    ...     1.0e-02
   TCutCMO   ...     1.0e-03
   TCutCPAO  ...     1.0e-03

Thresholds for map construction and integral transformation for weak Triples:
   TCutMKN   ...     1.0e-01
   TCutDO    ...     2.0e-02
   TCutCMO   ...     1.0e-03
   TCutCPAO  ...     1.0e-03

--------------------------------
LOCAL RI TRANSFORMATION (IAVPAO)
--------------------------------

Orbital window:       2 to 7
Number of PAOs:      48
Basis functions:     48 (24 shells)
Aux. functions:     302 (122 shells)
Use SHARK:           on

Processing maps (0.0 sec)
Average map sizes:
   Aux shells -> MOs               6.0
   Aux shells -> PAOs             48.0
   MOs        -> AO shells        24.0
   PAOs       -> AO shells        24.0

Calculating integrals (0.2 sec, 0.667 MB)
Sorting integrals (0.0 sec, 0.664 MB)
Total time for the integral transformation: 0.2 sec
--------------------------------
INITIAL GUESS AND PNO GENERATION
--------------------------------

PNO truncation parameters                   .... 
    ScaleTCutPNO       =        1.000e-02
    PAOOverlapThresh   =        1.000e-08

    TCutPairs          =        1.000e-05
    TCutPNO            =        1.000e-07
    TCutPNOSingles     =        3.000e-09
    TCutMP2Pairs       =        1.000e-06
    TCutMKN            =        1.000e-03
    TCutDO             =        5.000e-03

Pair selection                          .... not used
Type of local MP2 treatment                 .... full local PMP2
Strategy for PNO selection                  .... occupation number selection
Pair density normalization                  .... MP2 norm
Spin component scaling                      .... not used

PASS-1: Formation of initial guess LMP2 amplitudes
Initial amplitudes guess done. Entering LMP2 iteration loop:
   Max. no of iterations          ...  50
   Energy convergence tolerance   ...    1.0e-07
   Residual convergence tolerance ...    5.0e-07
   Fock matrix cutoff             ...    1.0e-05 Eh
   DIIS convergence acceleration parameters:
        Max # vectors in DIIS     ... 7
        Start iteration of DIIS   ... 0
        Levelshift                ... 2.000e-01
        Damping factor 1          ... 5.000e-01
        Damping factor 2          ... 1.000e+00
   L-MP2 PNO cut-off              ...   1.0e-09
   L-MP2 PNO cut-off (core)       ...   1.0e-11
                           *** Turning on DIIS ***
LMP2-Iter=   0:  ELMP2= -0.270145628277  DE=   5.4e-03 RMAX=   1.8e-02
LMP2-Iter=   1:  ELMP2= -0.273473652565  DE=   3.3e-03 RMAX=   7.2e-03
LMP2-Iter=   2:  ELMP2= -0.274184537243  DE=   7.1e-04 RMAX=   2.7e-03
LMP2-Iter=   3:  ELMP2= -0.274243330669  DE=   5.9e-05 RMAX=   6.4e-04
LMP2-Iter=   4:  ELMP2= -0.274233050962  DE=   1.0e-05 RMAX=   1.2e-04
LMP2-Iter=   5:  ELMP2= -0.274232424501  DE=   6.3e-07 RMAX=   1.5e-05
LMP2-Iter=   6:  ELMP2= -0.274232500544  DE=   7.6e-08 RMAX=   1.4e-06
LMP2-Iter=   7:  ELMP2= -0.274232529852  DE=   2.9e-08 RMAX=   2.1e-07
LMP2-Iter=   8:  ELMP2= -0.274232530537  DE=   6.9e-10 RMAX=   2.5e-08 => CONVERGED
PASS-2: Formation of Pair natural orbitals
   .... Finished loop over pairs

 PNO Occupation Number Statistics: 
  | Av. % of trace(Dij) retained        ...  99.991192171299
  | sigma^2 in % of trace(Dij) retained ...   1.58e-04
  | Av. % of trace(Di) retained         ...  99.999973503536
  | sigma^2 in % of trace(Di) retained  ...   3.51e-10
 Distributions of % trace(Dij) recovered:
  |       >= 99.9  ...    21 (100.0 % of all pairs)
 Distributions of % trace(Di) recovered :
  |       >= 99.9  ...     6 (100.0 % of all I-pairs )

Making pair pair interaction lists          ... done

                       ===========================
                         21 OF   21 PAIRS ARE KEPT
                       ===========================

Total time spent in the initial guess                 ...     1.159 sec
L-MP2 correlation energy (all non-screened pairs)     ...      -0.274232530537 Eh
L-MP2 PNO error correction                            ...      -0.000000024213 Eh
                                                          --------------------
Initial total L-MP2 energy (non-screened pairs)       ...      -0.274232554750 Eh

Initial PNO correlation energy                        ...      -0.274215368782 Eh
sum of pair energies estimated for screened out pairs ...       0.000000000000 Eh
sum of MP2 pair energies for pairs that were not kept ...       0.000000000000 Eh
sum of PNO error estimates for the kept pairs         ...      -0.000017185969 Eh
                                                          --------------------
sum of all corrections                                         -0.000017185969
Initial total correlation energy                               -0.274232554750
Thresholds for map construction and integral transformation for fine MP2 and CCSD(T) calculation:
   TCutMKN   ...     1.0e-03
   TCutDO    ...     5.0e-03
   TCutPairs ...     1.0e-05
   TCutCMO   ...     1.0e-03
   TCutCPAO  ...     1.0e-03

Number of pairs in F12 (TCutDOF12 = 3.000e-04)        ...     21

Time for aux screen maps:            0.001
Time for maps after fine MP2:            0.002
-----------------------------
LOCAL RI TRANSFORMATION (IJV)
-----------------------------

Orbital window:       2 to 7
Basis functions:     48 (24 shells)
Aux. functions:     302 (122 shells)
Use SHARK:           on

Processing maps (0.0 sec)
Average map sizes:
   Aux shells -> MOs(i)            6.0
   Aux shells -> MOs(j)            6.0
   MOs        -> AO shells        24.0

Calculating integrals (0.2 sec, 0.086 MB)
Sorting integrals (0.0 sec, 0.083 MB)
Total time for the integral transformation: 0.2 sec
--------------------------------
LOCAL RI TRANSFORMATION (VABPAO)
--------------------------------

Number of PAOs:      48
Basis functions:     48 (24 shells)
Aux. functions:     302 (122 shells)
Use SHARK:           on

Processing maps (0.0 sec)
Average map sizes:
   Aux shells -> PAOs             48.0
   PAOs       -> AO shells        24.0

Calculating integrals (0.3 sec, 5.312 MB)
Finished


-------------------------------------
Pair Pair Term precalculation with     
RI-(ij|mn) and (im|jn) transformation  
ON THE FLY                             
-------------------------------------

   IBatch   1 (of   1)              ... done (    0.563 sec)
Total EXT                           ...           0.563 sec

---------------------
RI-PNO TRANSFORMATION
---------------------

Total Number of PNOs                   ...   654
Average number of PNOs per pair        ...    31
Maximal number of PNOs per pair        ...    36
   #pairs with  1 -  5 PNOs   :    0
   #pairs with  6 - 10 PNOs   :    0
   #pairs with 11 - 15 PNOs   :    0
   #pairs with 16 - 20 PNOs   :    0
   #pairs with 21 - 25 PNOs   :    4
   #pairs with 26 - 30 PNOs   :    2
   #pairs with 31 - 35 PNOs   :   14
   #pairs with 36 - 40 PNOs   :    1
   #pairs with 41 - 45 PNOs   :    0
   #pairs with 46 - 50 PNOs   :    0

Generation of (ij|ab)[P] integrals            ... on
Generation of (ia|bc)[P],(ja|bc)[P] integrals ... on
Storage of 3 and 4 external integrals         ... on
Generation of ALL (ka|bc)[P] integrals        ... on
Keep RI integrals in memory                   ... off

Ibatch:  1 (of  1)
Starting 2-4 index PNO integral generation ... done

Timings:
Total PNO integral transformation time     ...          0.373 sec
Size of the 3-external file                ...         5 MB
Size of the 4-external file                ...        21 MB
Size of the IKJL file                      ...         0 MB
Size of the all 3-external file            ...        15 MB
Size of the 1-external file                ...         0 MB

Making pair/pair overlap matrices          ... done (    0.018 sec)
Size of the pair overlap file              ... 3 MB
Redoing the guess amplitudes               ... done (    0.003 sec)

-------------------------
FINAL STARTUP INFORMATION
-------------------------

E(0)                                       ...    -78.040154201
E(L-MP2)                                   ...     -0.274232555
E(L-MP2) including corrections             ...     -0.274232555
Initial E(tot)                             ...    -78.314386756
<T|T>                                      ...      0.090295382
Number of pairs included                   ... 21
Total number of pairs                      ... 21

------------------------------------------------
                  RHF COUPLED CLUSTER ITERATIONS
------------------------------------------------

Number of PNO amplitudes to be optimized   ...        20646
Number of non-PNO amplitudes               ...        33600
Untruncated number of regular amplitudes   ...        33600

Iter       E(tot)           E(Corr)          Delta-E          Residual     Time
  0    -78.304927322     -0.264755934      0.009476620      0.021599886    1.15
                           *** Turning on DIIS ***
  1    -78.329229085     -0.289057698     -0.024301764      0.014003630    1.22
  2    -78.341378431     -0.301207044     -0.012149346      0.007968886    1.85
  3    -78.343462394     -0.303291007     -0.002083963      0.003956112    1.52
  4    -78.344346173     -0.304174785     -0.000883779      0.001595423    1.52
  5    -78.344629220     -0.304457833     -0.000283047      0.000313025    1.61
  6    -78.344644907     -0.304473520     -0.000015687      0.000071624    1.40
  7    -78.344643692     -0.304472305      0.000001215      0.000017949    1.44
               --- The Coupled-Cluster iterations have converged ---
Making OccT1 to AO map ... ok
3-index local transformation (OBS,OBS/AUX) for   op=0   ... done (      0.1 sec)
3-index local transformation (OBS,CABS/AUX) for  op=0   ... done (      0.1 sec)
3-index local transformation (OBS,OBS/AUX) for   op=1   ... done (      0.1 sec)
3-index local transformation (OBS,CABS/AUX) for  op=1   ... done (      0.3 sec)
3-index local transformation (OBS,OBS/AUX) for   op=2   ... done (      0.1 sec)
3-index local transformation (OBS,CABS/AUX) for  op=2   ... done (      0.1 sec)
3-index local transformation (OBS,OBS/AUX) for   op=3   ... done (      0.1 sec)
3-index local transformation (OBS,CABS/AUX) for  op=3   ... done (      0.2 sec)
3-index local transformation (OBS,OBS/AUX) for   op=4   ... done (      0.1 sec)
3-index local transformation (OBS,CABS/AUX) for  op=4   ... done (      0.3 sec)
3-index local transformation (OBS,OBS/AUX) of (pa|X)    ... done (      0.2 sec)
3-index local transformation (OBS_T1,OBS/AUX) for op=0  ... done (      0.1 sec)
3-index local transformation (OBS_T1,OBS/AUX) for op=1  ... done (      0.1 sec)
3-index local transformation (OBS_F,OBS/AUX) for op=2   ... done (      0.2 sec)
3-index local transformation (OBS_F,CABS/AUX)for op=2   ... done (      0.4 sec)
------------------------
RHF DLPNO F12 CORRECTION
------------------------

Doing SCF density matrices                              ... done (      0.0 sec)
Calculating RI Coulomb operators
Retrieving the Coulomb fitting basis                    ... done
       .... OBS/OBS done        (      0.1 sec)
       .... CABS/OBS done       (      0.1 sec)
       .... CABS/CABS done      (      0.1 sec)

F12 OBS GRIDX
-------------

General Integration Accuracy     IntAcc      ... 4.338
Radial Grid Type                 RadialGrid  ... OptM3 with GC (2021)
Angular Grid (max. ang.)         AngularGrid ... 3 (Lebedev-194)
Angular grid pruning method      GridPruning ... 5 (extended)
Weight generation scheme         WeightScheme... Becke
Basis function cutoff            BFCut       ... 1.0000e-10
Integration weight cutoff        WCut        ... 1.0000e-14
Angular grids for H and He will be reduced by one unit
Partially contracted basis set               ... on
Rotationally invariant grid construction     ... off

Total number of grid points                  ...    43372
Total number of batches                      ...      681
Average number of points per batch           ...       63
Average number of grid points per atom       ...     7229

F12 CABS GRIDX
--------------

General Integration Accuracy     IntAcc      ... 4.338
Radial Grid Type                 RadialGrid  ... OptM3 with GC (2021)
Angular Grid (max. ang.)         AngularGrid ... 3 (Lebedev-194)
Angular grid pruning method      GridPruning ... 5 (extended)
Weight generation scheme         WeightScheme... Becke
Basis function cutoff            BFCut       ... 1.0000e-10
Integration weight cutoff        WCut        ... 1.0000e-14
Angular grids for H and He will be reduced by one unit
Partially contracted basis set               ... on
Rotationally invariant grid construction     ... off

Total number of grid points                  ...    43372
Total number of batches                      ...      681
Average number of points per batch           ...       63
Average number of grid points per atom       ...     7229

Calculating COSX Exchange operators
       .... OBS/OBS done        (      0.4 sec)
       .... CABS/OBS done       (      0.5 sec)
       .... CABS/CABS done      (      2.1 sec)
Completing Fock operators                               ... done (      0.0 sec)
Calculating F12 intermediates (incore)                  ... 

WARNING (ORCA_TOOLS): CalcCholeskyLLoc() returned with error 1
                      Potentially linear dependencies in the aux basis!



WARNING (ORCA_TOOLS): CalcCholeskyLLoc() returned with error 1
                      Potentially linear dependencies in the aux basis!



WARNING (ORCA_TOOLS): CalcCholeskyLLoc() returned with error 1
                      Potentially linear dependencies in the aux basis!



WARNING (ORCA_TOOLS): CalcCholeskyLLoc() returned with error 1
                      Potentially linear dependencies in the aux basis!



WARNING (ORCA_TOOLS): CalcCholeskyLLoc() returned with error 1
                      Potentially linear dependencies in the aux basis!


Total T*B*T Contribution              =   0.066325319836

Total V*T MP2 Contribution            =  -0.154860974800

Total V*T CCSD without S Contribution =  -0.128979871069

Total V*T CCSD with S Contribution    =  -0.129755688754

DeltaEC_MP2                           =  -0.088535654964

DeltaEC_CCSD without S                =  -0.062654551233

DeltaEC_CCSD with S                   =  -0.063430368918
Total time of computation of intermediates                       (      1.1 sec)
Calculating correlation correction                      ... done (      0.2 sec)

F12 correction                   :  -0.063430368918
HF basis set correction          :  -0.023321783925
Sum of the two                   :  -0.086752152842

Total time for F12 correction    :     5.352 sec
  .... cleaning up and leaving F12-CCSD

----------------------
COUPLED CLUSTER ENERGY
----------------------

Uncorrected 0th order energy               ...    -78.040154201
F12-HF basis set correction                ...     -0.023321784
Corrected 0th order energy                 ...    -78.063475985

E(CORR)(strong-pairs)                      ...     -0.304472305
E(CORR)(weak-pairs)                        ...     -0.000017186
E(CORR)(corrected)                         ...     -0.304489491
Uncorrected correlation energy             ...     -0.304472305
F12-correction to the correlation energy   ...     -0.063430369
Final F12 correlation energy               ...     -0.367919860

E(TOT)-before F12 corrections              ...    -78.344643692
E(TOT)-after HF correction                 ...    -78.367965476
E(TOT)-after all F12 corrections           ...    -78.431395845

Singles Norm <S|S>**1/2                    ...      0.033949756  
T1 diagnostic                              ...      0.009800450  

------------------
LARGEST AMPLITUDES
------------------
   4->  8   4->  8       0.070018
   5->  8   5->  8       0.070018
   5->  8   4->  8       0.064975
   6->  9   6->  9       0.034466
   7->  9   7->  9       0.034466
   2->  9   2->  9       0.034466
   3->  9   3->  9       0.034466
   7-> 14   7-> 14       0.028667
   6-> 14   6-> 14       0.028667
   3-> 14   3-> 14       0.028667
   2-> 14   2-> 14       0.028667
   4->  8   4-> 18       0.026839
   4-> 18   4->  8       0.026839
   5-> 18   5->  8       0.026839
   5->  8   5-> 18       0.026839
   3-> 16   3->  9       0.020944


-------------------------------------------
DLPNO BASED TRIPLES CORRECTION
-------------------------------------------

Singles multiplier          ...  1.000000
TCutTNO                     ... 1.000e-09
TCutMP2Pairs                ... 1.000e-06
TCutDOStrong                ... 1.000e-02
TCutMKNStrong               ... 1.000e-02
TCutDOWeak                  ... 2.000e-02
TCutMKNWeak                 ... 1.000e-01

Parameters used in iterative triples
TCutFock                    ... 1.000e-03
TCutWeak                    ... 1.000e-08
TCutWeakGuess               ... 6.000e-06
TCutIter                    ... 1.000e-03
TNOScaleS                   ... 1.000e+01
TNOScaleW                   ... 1.000e+02
ETol                        ... 1.000e-04

Fragment selection                          .... not used
Number of Triples that are to be computed   ...        50

 . . . . . . . . .
10% done  
20% done  
30% done  
40% done  
50% done  
60% done  
70% done  
80% done  
90% done               (      1.020 sec)

-------------------
Triples Iterations:
-------------------

The T1 Strong/Weak pair is = 30/20 

Iter        E(Triple)      Delta-E            Time
  0     0.000000000000    0.009236771866      1.04
  1    -0.009622519210    0.000385747345      1.77
  2    -0.009651422646    0.000028903435      1.74

------------------
TRIPLES CORRECTION
------------------

The Conventional (T0) is    -0.009244812004
The Truncated    (T0) is    -0.009236771866
The corrected     (T) is    -0.009659462785

Triples timings:
Total time for T0               ...     1.507 sec
Total time for Iterative (T)    ...     4.290 sec
Total time of overall (T)       ...     7.020 sec

Triples List generation         ...     0.000 sec
TNO generation                  ...     0.025 sec
Pair density generation         ...     0.000 sec
Look up tables                  ...     0.000 sec
Generating 3-index integrals    ...     0.651 sec
  Make 4-ind.int. from 3-ind.int...     0.047 sec
  Projecting amplitudes (D + S) ...     0.004 sec
  Downprojecting integrals      ...     0.044 sec
  Energy contr. (sum over a,b,c)...     0.236 sec
Fitting ET(->0)                 ...     0.000 sec

Everything after 3-index        ...     0.369 sec

Timing details:
 TNO integrals                  ...     0.694 sec
   Reading 3-index integrals    ...     0.599 sec
   Sorting integrals            ...     0.016 sec
       Sorting integrals 1      ...     0.000 sec
       Sorting integrals 2      ...     0.007 sec
       Sorting integrals 3      ...     0.002 sec
       Sorting integrals 4      ...     0.000 sec
       Sorting integrals 5      ...     0.000 sec
       Sorting integrals 6      ...     0.006 sec
   Calculating local VM**-1/2   ...     0.006 sec
   Orthogonal. integrals        ...     0.015 sec
   Multipl. 3-index integrals   ...     0.057 sec
   All concerning IRIab (w/TNO) ...     0.017 sec

 Calculate W0/W1                ...     0.038 sec
 W 3-ext contribution           ...     0.022 sec
 W 3-int contribution           ...     0.005 sec
 Sorting W                      ...     0.010 sec

 V exchange contribution        ...     0.036 sec

 Timings for Triples without generation
     of 3-index integrals       ...     0.369 sec
       0 weak pairs             ...     0.369 sec
       1 weak pair              ...     0.000 sec
       2 weak pairs             ...     0.000 sec
       3 weak pairs             ...     0.000 sec
  Extra time for extrapolation  ...     0.000 sec

Number of Triples   (0, 1, 2, 3 weak pairs; overall):     50       0       0       0  (    50)
Number of Atoms     (0, 1, 2, 3 weak pairs; overall):    6.0     0.0     0.0     0.0  (     6)
Number of PAOs      (0, 1, 2, 3 weak pairs; overall):   48.0     0.0     0.0     0.0  (    48)
Number of AuxFcns   (0, 1, 2, 3 weak pairs; overall):  245.1     0.0     0.0     0.0  (   302)
Number of TNOs      (0, 1, 2, 3 weak pairs         ):   39.8     0.0     0.0     0.0
Aver. Number of NTNO, Atoms, PAOs, AuxFcns / Triples:     50    39.8     6.0    48.0   245.1

Triples Correction (T)                     ...     -0.009659463
Final correlation energy (without F12)     ...     -0.314148954
Final correlation energy (with F12)        ...     -0.377579323
F12-E(CCSD)                                ...    -78.431395845
F12-E(CCSD(T))                             ...    -78.441055308



------------------------------------------------------------------------------- 
                                     TIMINGS                                   
------------------------------------------------------------------------------- 


Total execution time                   ...       33.703 sec

Localization of occupied MO's          ...        0.373 sec (  1.1%)
Fock Matrix Formation                  ...        0.467 sec (  1.4%)
Global overlap, Fock, MKN matrices     ...        0.247 sec (  0.7%)
Differential overlap integrals         ...        0.613 sec (  1.8%)
Organizing maps                        ...        0.008 sec (  0.0%)
RI 3-index integral generations        ...        0.889 sec (  2.6%)
RI-PNO integral transformation         ...        1.134 sec (  3.4%)
Initial Guess                          ...        1.203 sec (  3.6%)
DIIS Solver                            ...        0.612 sec (  1.8%)
State Vector Update                    ...        0.001 sec (  0.0%)
Sigma-vector construction              ...       11.439 sec ( 33.9%)
  <D|H|D>(0-ext)                       ...        1.071 sec (  9.4% of sigma)
  <D|H|D>(2-ext)                       ...        0.810 sec (  7.1% of sigma)
  <D|H|D>(4-ext)                       ...        0.210 sec (  1.8% of sigma)
  <D|H|D>(4-ext-corr)                  ...        0.566 sec (  4.9% of sigma)
  CCSD doubles correction              ...        0.291 sec (  2.5% of sigma)
  <S|H|S>                              ...        1.823 sec ( 15.9% of sigma)
  <S|H|D>(1-ext)                       ...        0.024 sec (  0.2% of sigma)
  <S|H|D>(3-ext)                       ...        0.038 sec (  0.3% of sigma)
  Fock-dressing                        ...        2.795 sec ( 24.4% of sigma)
  Singles amplitudes                   ...        0.472 sec (  4.1% of sigma)
  (ik|jl)-dressing                     ...        0.965 sec (  8.4% of sigma)
  (ij|ab),(ia|jb)-dressing             ...        1.522 sec ( 13.3% of sigma)
  Pair energies                        ...        0.002 sec (  0.0% of sigma)
Total Time for computing F12           ...        8.043 sec ( 23.9% of ALL)
Total Time for computing (T)           ...        7.021 sec ( 20.8% of ALL)


Maximum memory used throughout the entire MDCI-calculation: 207.3 MB

-------------------------   --------------------
FINAL SINGLE POINT ENERGY       -78.441055308078
-------------------------   --------------------


                            ***************************************
                            *     ORCA property calculations      *
                            ***************************************


  WARNING: The energy has been calculated at the MDCI level but the densities
           used in the property calculations are still SCF densities
           MDCI response densities have not been calculated 
           use %mdci Density linearized end
           or  %mdci Density unrelaxed end
           or  %mdci Density orbopt end

                                    ---------------------
                                    Active property flags
                                    ---------------------
   (+) Dipole Moment


------------------------------------------------------------------------------
                       ORCA ELECTRIC PROPERTIES CALCULATION
------------------------------------------------------------------------------

Dipole Moment Calculation                       ... on
Quadrupole Moment Calculation                   ... off
Polarizability Calculation                      ... off
GBWName                                         ... c2h4_lw1x-no-diffuse-on-c_Compound_1.gbw
Electron density                                ... c2h4_lw1x-no-diffuse-on-c_Compound_1.scfp
The origin for moment calculation is the CENTER OF MASS  = ( 0.000000,  0.000000  0.000000)

-------------
DIPOLE MOMENT
-------------
                                X             Y             Z
Electronic contribution:      0.00000      -0.00000       0.00000
Nuclear contribution   :      0.00000       0.00000       0.00000
                        -----------------------------------------
Total Dipole Moment    :      0.00000      -0.00000       0.00000
                        -----------------------------------------
Magnitude (a.u.)       :      0.00000
Magnitude (Debye)      :      0.00000



--------------------
Rotational spectrum 
--------------------
 
Rotational constants in cm-1:     4.929580     1.011448     0.839251 
Rotational constants in MHz : 147785.094948 30322.437410 25160.105428 

 Dipole components along the rotational axes: 
x,y,z [a.u.] :     0.000000    -0.000000     0.000000 
x,y,z [Debye]:     0.000000    -0.000000     0.000000 

 

Timings for individual modules:

Sum of individual times         ...       44.832 sec (=   0.747 min)
GTO integral calculation        ...        3.594 sec (=   0.060 min)   8.0 %
SCF iterations                  ...        6.394 sec (=   0.107 min)  14.3 %
MDCI module                     ...       34.845 sec (=   0.581 min)  77.7 %


################################################################################


                                COMPOUND JOB  2 
Basename: c2h4_lw1x-no-diffuse-on-c_Compound_2
NOTE: please remember that MaxCore and PAL settings will be ignored.

################################################################################

================================================================================
                                       INPUT FILE
================================================================================
NAME = c2h4_lw1x-no-diffuse-on-c_Compound_2.inp
|  1>     ! DefGrid3 RIJCOSX TightPNO DLPNO-CCSD(T1)-F12 MiniPrint NoPop
|  2>     %Basis
|  3>       Basis        "maug-cc-pV(T+d)Z"
|  4>       AuxJ         "AutoAux"
|  5>       AuxC         "AutoAux"
|  6>       CABS         "AutoAux"
|  7>       NewGTO     C "cc-pVTZ" End
|  8>       NewAuxjGTO C "AutoAux" End
|  9>       NewAuxcGTO C "AutoAux" End
| 10>       NewCabsGTO C "AutoAux" End
| 11>     End
| 12> 
| 13>                          ****END OF INPUT****
================================================================================
Warning! AutoAux has not been tested for CABS - use at your own risk!
================================================================================

----- Orbital basis set information -----
Your calculation utilizes the basis: may-cc-pV(T+d)Z 
  E. Papajak, D. G. Truhlar, J. Chem. Theory Comput. 7, 10-18 (2011).

The basis set includes element-specific modifications.

Your calculation utilizes the basis: cc-pVTZ 
       H, B-Ne : Obtained from the ccRepo (grant-hill.group.shef.ac.uk/ccrepo) Feb. 2017
                 T. H. Dunning, Jr., J. Chem. Phys. 90, 1007 (1989)
            He : Obtained from the ccRepo (grant-hill.group.shef.ac.uk/ccrepo) Feb. 2017
                 D. E. Woon, T. H. Dunning, Jr., J. Chem. Phys. 100, 2975 (1994)
  Li-Be, Na-Mg : Obtained from the ccRepo (grant-hill.group.shef.ac.uk/ccrepo) Feb. 2017
                 B. P. Prascher, D. E. Woon, K. A. Peterson, T. H. Dunning, Jr., A. K. Wilson, Theor. Chem. Acc. 128, 69 (2011)
         Al-Ar : Obtained from the ccRepo (grant-hill.group.shef.ac.uk/ccrepo) Feb. 2017
                 D. E. Woon, T. H. Dunning, Jr., J. Chem. Phys. 98, 1358 (1993)
            Ca : Obtained from the Peterson Research Group Website (tyr0.chem.wsu.edu/~kipeters) Feb. 2017
                 J. Koput, K. A. Peterson, J. Phys. Chem. 106, 9595 (2002)
         Sc-Zn : Obtained from the ccRepo (grant-hill.group.shef.ac.uk/ccrepo) Feb. 2017
                 N. B. Balabanov, K. A. Peterson, J. Chem. Phys. 123, 064107 (2005)
                 N. B. Balabanov, K. A. Peterson, J. Chem. Phys. 125, 074110 (2006)
         Ga-Kr : Obtained from the ccRepo (grant-hill.group.shef.ac.uk/ccrepo) Feb. 2017
                 A. K. Wilson, D. E. Woon, K. A. Peterson, T. H. Dunning, Jr., J. Chem. Phys. 110, 7667 (1999)
             Y : Obtained from the ccRepo (grant-hill.group.shef.ac.uk/ccrepo) Feb. 2017
                 K. A. Peterson, D. Figgen, M. Dolg, H. Stoll, J. Chem. Phys. 126, 124101 (2007)
        Ag, Au : Obtained from the Peterson Research Group Website (tyr0.chem.wsu.edu/~kipeters) Feb. 2017
                 K. A. Peterson, C. Puzzarini, Theor. Chem. Acc. 114, 283 (2005)

----- AuxJ basis set information -----
Your calculation utilizes the AutoAux generation procedure.
  G. L. Stoychev, A. A. Auer, F. Neese, J. Chem. Theory Comput. 13, 554 (2017)

The basis set includes element-specific modifications.

----- AuxC basis set information -----
Your calculation utilizes the AutoAux generation procedure.
  G. L. Stoychev, A. A. Auer, F. Neese, J. Chem. Theory Comput. 13, 554 (2017)

The basis set includes element-specific modifications.

----- CABS information -----
Your calculation utilizes the AutoAux generation procedure.
  G. L. Stoychev, A. A. Auer, F. Neese, J. Chem. Theory Comput. 13, 554 (2017)

The basis set includes element-specific modifications.


                    <<< The CABS basis set will be decontracted >>>

================================================================================
                                        WARNINGS
                       Please study these warnings very carefully!
================================================================================


WARNING: Post HF methods need fully converged wavefunctions
  ===> : Setting SCFConvForced true
         You can overwrite this default with %scf ConvForced false 


WARNING: MDCI localization with Augmented Hessian Foster-Boys
  ===> : Switching off randomization!

INFO   : the flag for use of the SHARK integral package has been found!


                       ****************************
                       * Single Point Calculation *
                       ****************************

---------------------------------
CARTESIAN COORDINATES (ANGSTROEM)
---------------------------------
  C      0.000000    0.000000    0.662598
  H      0.000000    0.920944    1.232046
  H     -0.000000   -0.920944    1.232046
  C      0.000000    0.000000   -0.662598
  H     -0.000000   -0.920944   -1.232046
  H      0.000000    0.920944   -1.232046

----------------------------
CARTESIAN COORDINATES (A.U.)
----------------------------
  NO LB      ZA    FRAG     MASS         X           Y           Z
   0 C     6.0000    0    12.011    0.000000    0.000000    1.252129
   1 H     1.0000    0     1.008    0.000000    1.740332    2.328230
   2 H     1.0000    0     1.008   -0.000000   -1.740332    2.328230
   3 C     6.0000    0    12.011    0.000000    0.000000   -1.252129
   4 H     1.0000    0     1.008   -0.000000   -1.740332   -2.328230
   5 H     1.0000    0     1.008    0.000000    1.740332   -2.328230



           ************************************************************
           *        Program running with 5 parallel MPI-processes     *
           *              working on a common directory               *
           ************************************************************
------------------------------------------------------------------------------
                   ___                                                        
                  /   \      - P O W E R E D   B Y -                         
                 /     \                                                     
                 |  |  |   _    _      __       _____    __    __             
                 |  |  |  | |  | |    /  \     |  _  \  |  |  /  |          
                  \  \/   | |  | |   /    \    | | | |  |  | /  /          
                 / \  \   | |__| |  /  /\  \   | |_| |  |  |/  /          
                |  |  |   |  __  | /  /__\  \  |    /   |      \           
                |  |  |   | |  | | |   __   |  |    \   |  |\   \          
                \     /   | |  | | |  |  |  |  | |\  \  |  | \   \       
                 \___/    |_|  |_| |__|  |__|  |_| \__\ |__|  \__/        
                                                                              
                      - O R C A' S   B I G   F R I E N D -                    
                                      &                                       
                       - I N T E G R A L  F E E D E R -                       
                                                                              
 v1 FN, 2020, v2 2021                                                         
------------------------------------------------------------------------------


Reading SHARK input file c2h4_lw1x-no-diffuse-on-c_Compound_2.SHARKINP.tmp ... ok
----------------------
SHARK INTEGRAL PACKAGE
----------------------

Number of atoms                             ...      6
Number of basis functions                   ...    116
Number of shells                            ...     44
Maximum angular momentum                    ...      3
Integral batch strategy                     ... SHARK/LIBINT Hybrid
RI-J (if used) integral strategy            ... SPLIT-RIJ (Revised 2003 algorithm where possible)
Printlevel                                  ...      1
Contraction scheme used                     ... SEGMENTED contraction
Coulomb Range Separation                    ... NOT USED
Exchange Range Separation                   ... NOT USED
Finite Nucleus Model                        ... NOT USED
Auxiliary Coulomb fitting basis             ... AVAILABLE
   # of basis functions in Aux-J            ...    526
   # of shells in Aux-J                     ...    166
   Maximum angular momentum in Aux-J        ...      4
[...]
   4   2.0000      -0.642087       -17.4721 
   5   2.0000      -0.588884       -16.0243 
   6   2.0000      -0.504506       -13.7283 
   7   2.0000      -0.378144       -10.2898 
   8   0.0000       0.153493         4.1768 
   9   0.0000       0.159172         4.3313 
  10   0.0000       0.186330         5.0703 
  11   0.0000       0.190771         5.1912 
  12   0.0000       0.241521         6.5721 
  13   0.0000       0.366847         9.9824 
  14   0.0000       0.368073        10.0158 
  15   0.0000       0.439675        11.9642 
  16   0.0000       0.442303        12.0357 
  17   0.0000       0.480541        13.0762 
  18   0.0000       0.563749        15.3404 
  19   0.0000       0.589535        16.0421 
  20   0.0000       0.593619        16.1532 
  21   0.0000       0.634479        17.2651 
  22   0.0000       0.635727        17.2990 
  23   0.0000       0.677515        18.4361 
  24   0.0000       0.694898        18.9091 
  25   0.0000       0.792986        21.5783 
  26   0.0000       0.829664        22.5763 
  27   0.0000       0.851112        23.1599 
  28   0.0000       0.875222        23.8160 
  29   0.0000       0.986787        26.8518 
  30   0.0000       1.085051        29.5257 
  31   0.0000       1.098258        29.8851 
  32   0.0000       1.181175        32.1414 
  33   0.0000       1.182000        32.1639 
  34   0.0000       1.218648        33.1611 
  35   0.0000       1.231058        33.4988 
  36   0.0000       1.297746        35.3135 
  37   0.0000       1.318806        35.8865 
  38   0.0000       1.377350        37.4796 
  39   0.0000       1.459832        39.7240 
  40   0.0000       1.460175        39.7334 
  41   0.0000       1.548740        42.1434 
  42   0.0000       1.581818        43.0435 
  43   0.0000       1.593259        43.3548 
  44   0.0000       1.610853        43.8335 
  45   0.0000       1.611097        43.8402 
  46   0.0000       1.614190        43.9243 
  47   0.0000       1.881355        51.1943 
  48   0.0000       2.228091        60.6295 
  49   0.0000       2.270450        61.7821 
  50   0.0000       2.408519        65.5391 
  51   0.0000       2.512536        68.3696 
  52   0.0000       2.550402        69.4000 
  53   0.0000       2.563665        69.7609 
  54   0.0000       2.628607        71.5280 
  55   0.0000       2.740936        74.5846 
  56   0.0000       2.860135        77.8282 
  57   0.0000       2.945824        80.1600 
  58   0.0000       2.966671        80.7272 
  59   0.0000       3.029182        82.4282 
  60   0.0000       3.092811        84.1597 
  61   0.0000       3.093852        84.1880 
  62   0.0000       3.105629        84.5085 
  63   0.0000       3.116259        84.7977 
  64   0.0000       3.142146        85.5021 
  65   0.0000       3.158040        85.9346 
  66   0.0000       3.180617        86.5490 
  67   0.0000       3.201114        87.1067 
  68   0.0000       3.348880        91.1276 
  69   0.0000       3.353285        91.2475 
  70   0.0000       3.377163        91.8973 
  71   0.0000       3.412549        92.8602 
  72   0.0000       3.433910        93.4414 
  73   0.0000       3.494829        95.0991 
  74   0.0000       3.522327        95.8474 
  75   0.0000       3.612162        98.2919 
  76   0.0000       3.634240        98.8927 
  77   0.0000       3.703439       100.7757 
  78   0.0000       3.730216       101.5043 
  79   0.0000       3.782221       102.9195 
  80   0.0000       3.919896       106.6658 
  81   0.0000       3.955746       107.6413 
  82   0.0000       4.011305       109.1532 
  83   0.0000       4.012798       109.1938 
  84   0.0000       4.020287       109.3976 
  85   0.0000       4.021710       109.4363 
  86   0.0000       4.130186       112.3881 
  87   0.0000       4.187769       113.9550 
  88   0.0000       4.220313       114.8405 
  89   0.0000       4.295549       116.8878 
  90   0.0000       4.312764       117.3563 
  91   0.0000       4.331474       117.8654 
  92   0.0000       4.359566       118.6298 
  93   0.0000       4.448534       121.0508 
  94   0.0000       4.460868       121.3864 
  95   0.0000       4.555929       123.9731 
  96   0.0000       4.625438       125.8646 
  97   0.0000       4.842515       131.7715 
  98   0.0000       4.898715       133.3008 
  99   0.0000       4.946126       134.5909 
 100   0.0000       5.003307       136.1469 
 101   0.0000       5.038606       137.1074 
 102   0.0000       5.220995       142.0705 
 103   0.0000       5.315762       144.6492 
 104   0.0000       5.386867       146.5841 
 105   0.0000       5.414911       147.3472 
 106   0.0000       5.504990       149.7984 
 107   0.0000       5.514552       150.0586 
 108   0.0000       5.525222       150.3489 
 109   0.0000       5.678674       154.5246 
 110   0.0000       5.747312       156.3923 
 111   0.0000       6.164376       167.7412 
 112   0.0000       6.244828       169.9304 
 113   0.0000       6.340507       172.5340 
 114   0.0000       6.703982       182.4246 
 115   0.0000       6.832748       185.9285 
 116   0.0000      10.425541       283.6934 
 117   0.0000      10.540836       286.8307 
 118   0.0000      11.564776       314.6936 
 119   0.0000      11.606963       315.8415 
 120   0.0000      11.647119       316.9342 
 121   0.0000      11.742118       319.5193 
 122   0.0000      13.036631       354.7448 
 123   0.0000      13.631855       370.9416 
 124   0.0000      14.717058       400.4715 
 125   0.0000      14.964580       407.2069 
 126   0.0000      15.006002       408.3341 
 127   0.0000      15.019559       408.7030 
 128   0.0000      15.314894       416.7395 
 129   0.0000      15.444675       420.2710 
 130   0.0000      15.455377       420.5622 
 131   0.0000      15.535388       422.7394 
 132   0.0000      16.022099       435.9835 
 133   0.0000      16.668267       453.5666 
 134   0.0000      50.238355      1367.0551 
 135   0.0000      50.332457      1369.6158 
 136   0.0000      51.027533      1388.5298 
 137   0.0000      51.075820      1389.8437 
 138   0.0000      51.090146      1390.2336 
 139   0.0000      51.245392      1394.4580 
 140   0.0000      62.195608      1692.4285 
 141   0.0000      62.977898      1713.7157 
Total SCF time: 0 days 0 hours 0 min 4 sec 

Maximum memory used throughout the entire SCF-calculation: 63.2 MB


           ************************************************************
           *        Program running with 5 parallel MPI-processes     *
           *              working on a common directory               *
           ************************************************************

------------------------------------------------------------------------------
                                ORCA  MP2 
------------------------------------------------------------------------------

Freezing NCore=0 chemical core electrons
Initializing SHARK ... done


------------------------------------------------------------------------------
                           ORCA ORBITAL LOCALIZATION
------------------------------------------------------------------------------

Input orbitals are from                  ... c2h4_lw1x-no-diffuse-on-c_Compound_4.gbw
Output orbitals are to                   ... c2h4_lw1x-no-diffuse-on-c_Compound_4.loc
Max. number of iterations                ... 128
Localizations seeded randomly            ... off
Convergence tolerance                    ... 1.000e-06
Treshold for strong local MOs            ... 9.500e-01
Treshold for bond MOs                    ... 8.500e-01
Operator                                 ... 0
Orbital range for localization           ... 0 to 7
Localization criterion                   ... FOSTER-BOYS (AUGMENTED HESSIAN)
Doing the dipole integrals     ... o.k.
Initial value of the localization sum :    12.317168
ITERATION   0 : L=   23.8182275183 DL=  1.15e+01 (AVERGE_DL)=    0.6408994555 
ITERATION   1 : L=   25.2525909824 DL=  1.43e+00 (AVERGE_DL)=    0.2263344132 
ITERATION   2 : L=   25.2663113438 DL=  1.37e-02 (AVERGE_DL)=    0.0221362351 
ITERATION   3 : L=   25.2663313744 DL=  2.00e-05 (AVERGE_DL)=    0.0008458019 
ITERATION   4 : L=   25.2663313784 DL=  3.93e-09 (AVERGE_DL)=    0.0000118506 
LOCALIZATION SUM CONVERGED

------------------------------------------------------
AUGMENTED HESSIAN OPTIMIZATION OF FOSTER-BOYS ORBITALS
------------------------------------------------------

Spin operator:           0
Orbital window:          0 to 7
Number of iterations:    128
Gradient tolerance:      1.000e-06
Number of pairs:         28
Davidson threshold:      2000
Diagonalization method:  LAPACK
Iter:    0   L: 25.2663313784   Grad. norm: 7.665052e-05
   *** Likely close to a maximum now. ***
       Augmented Hessian eigenvalues:  1.94e-10 -5.49e+00 -6.81e+00 -6.81e+00 ... 
Iter:    1   L: 25.2663313785   Grad. norm: 1.613147e-11
LOCALIZATION HAS CONVERGED.

Eigenvalues of the Hessian:
  0 -5.491e+00
  1 -6.815e+00
  2 -6.815e+00
  3 -7.134e+00
  4 -7.134e+00
  5 -7.770e+00
  6 -7.771e+00
  7 -9.223e+00
  8 -9.223e+00
  9 -1.816e+01
    ...


------------------------------------------------------------------------------- 
                    LOCALIZED MOLECULAR ORBITAL COMPOSITIONS                   
------------------------------------------------------------------------------- 

The Mulliken populations for each LMO on each atom are computed
The LMO`s will be ordered according to atom index and type
  (A) Strongly localized MO`s have populations of >=0.950 on one atom
  (B) Two center bond orbitals have populations of >=0.850 on two atoms
  (C) Other MO`s are considered to be `delocalized`

FOUND  -   2 strongly local MO`s
       -   6 two center bond MO`s
       -   0 significantly delocalized MO`s

Rather strongly localized orbitals:
MO   1:   3C  -   1.002407
MO   0:   0C  -   1.002407
Bond-like localized orbitals:
MO   7:   5H  -   0.464157  and   3C  -   0.551646
MO   6:   4H  -   0.464156  and   3C  -   0.551648
MO   5:   3C  -   0.501222  and   0C  -   0.501223
MO   4:   3C  -   0.501223  and   0C  -   0.501223
MO   3:   2H  -   0.464156  and   0C  -   0.551648
MO   2:   1H  -   0.464156  and   0C  -   0.551647
Localized MO's were stored in: c2h4_lw1x-no-diffuse-on-c_Compound_4.loc



Calculating differential overlap integrals ... ok
Threshold for domain construction in prescreening: TCutDOPre = 3.0e-02

--------------------------
ELECTRON PAIR PRESCREENING
--------------------------

Dipole-based pair screening          .... used

   TCutDOij = 1.000000e-05
   TCutPre  = 1.000000e-06
   .... Finished loop over pairs
Total time spent in the prescreening                  ...     0.005 sec
sum of pair energies estimated for screened out pairs ...       0.000000000000 Eh

---------------------------
MAP CONSTRUCTION THRESHOLDS
---------------------------
    TCutMKN     ...     1.0e-03
    TCutDO      ...     5.0e-03
    TCutC(MO)   ...     1.0e-03
    TCutC(PAO)  ...     1.0e-03

--------------------------------
LOCAL RI TRANSFORMATION (IAVPAO)
--------------------------------

Orbital window:       0 to 7
Number of PAOs:     142
Basis functions:    142 (54 shells)
Aux. functions:     658 (190 shells)
Use SHARK:           on

Processing maps (0.0 sec)
Average map sizes:
   Aux shells -> MOs               8.0
   Aux shells -> PAOs            142.0
   MOs        -> AO shells        51.0
   PAOs       -> AO shells        54.0

Calculating integrals (0.2 sec, 5.710 MB)
Sorting integrals (0.0 sec, 5.703 MB)
Total time for the integral transformation: 0.3 sec

----------------------------
Local MP2 Energy Calculation
----------------------------
Number of orbital pairs included:     36
Truncation parameters:
    PAOOverlapThresh    =        1.000e-08
    TCutPNO             =        1.000e-09

Spin component scaling                      .... not used
MP2 energy scaling factor                   .... 1.000

Formation of semicanonical amplitudes.
 10% done.
 20% done.
 30% done.
 40% done.
 50% done.
 60% done.
 70% done.
 80% done.
 90% done.
100% done.

Finished the LMP2 guess in 0.3 sec.

Average number of PAOs per pair        142.0
Average number of nrPAOs per pair      134.0
Average number of PNOs per pair         84.1
Average number of AUX  per pair        600.2

Semicanonical MP2 energy:                   -0.419007512053 Eh
Semicanonical MP2 energy in PNO basis:      -0.419002620996 Eh

Initial amplitudes guess done. Entering DLPNO-MP2 iteration loop:
   Max. no of iterations          ...  100
   Energy convergence tolerance   ...    1.0e-06 Eh
   Residual convergence tolerance ...    5.0e-06
   Fock matrix cutoff             ...    1.0e-05 Eh
   Max # vectors in DIIS          ...  7
   Start iteration of DIIS        ...  0
   Levelshift                     ...  2.000e-01 Eh
   Damping before turning on DIIS ...  5.000e-01
   Damping after turning on DIIS  ...  0.000e+00

                           *** Turning on DIIS ***
Iter=   0:  ECORR= -0.425323771757  DE=   6.3e-03 RMAX=   1.7e-02
Iter=   1:  ECORR= -0.430294461267  DE=   5.0e-03 RMAX=   7.6e-03
Iter=   2:  ECORR= -0.431379459604  DE=   1.1e-03 RMAX=   3.3e-03
Iter=   3:  ECORR= -0.431633829597  DE=   2.5e-04 RMAX=   1.1e-03
Iter=   4:  ECORR= -0.431633993047  DE=   1.6e-07 RMAX=   2.6e-04
Iter=   5:  ECORR= -0.431629762345  DE=   4.2e-06 RMAX=   5.7e-05
Iter=   6:  ECORR= -0.431629117749  DE=   6.4e-07 RMAX=   7.6e-06
Iter=   7:  ECORR= -0.431629237190  DE=   1.2e-07 RMAX=   1.0e-06 => CONVERGED

Finished the DLPNO-MP2 iterations in 4.8 sec.

LMP2 correlation energy (all non-screened pairs)      ...     -0.431629237190 Eh
Semicanonical PNO correction to energy                ...     -0.000004891057 Eh
Sum of pair energies estimated for screened out pairs ...      0.000000000000 Eh
                                                         -----------------------
Total:                                                ...     -0.431634128247 Eh

------------------------------------------------------
 DLPNO-MP2 CORRELATION ENERGY:      -0.431634128247 Eh
------------------------------------------------------

TIMINGS FOR DLPNO-MP2:
Localization                             ...        0.226 sec
Differential overlap integrals           ...        0.699 sec
Prescreening                             ...        0.146 sec
Map setup                                ...        0.001 sec
(ia|v) trafo                             ...        0.278 sec
Semicanonical amplitudes                 ...        0.191 sec
PNO construction                         ...        0.031 sec
DLPNO-MP2 iterations                     ...        4.776 sec
                                             ----------------
Total time                                          7.052 sec


---------------------------------------
MP2 TOTAL ENERGY:      -78.524432391 Eh
---------------------------------------

Maximum memory used throughout the entire MP2-calculation: 109.7 MB

-------------------------   --------------------
FINAL SINGLE POINT ENERGY       -78.524432391009
-------------------------   --------------------


                            ***************************************
                            *     ORCA property calculations      *
                            ***************************************


  WARNING: The energy has been calculated at the MP2 level but the densities
           used in the property calculations are still SCF densities
           MP2 response densities have not been calculated 
           use %mp2 Density relaxed end
           or  %mp2 Density unrelaxed end

                                    ---------------------
                                    Active property flags
                                    ---------------------
   (+) Dipole Moment


------------------------------------------------------------------------------
                       ORCA ELECTRIC PROPERTIES CALCULATION
------------------------------------------------------------------------------

Dipole Moment Calculation                       ... on
Quadrupole Moment Calculation                   ... off
Polarizability Calculation                      ... off
GBWName                                         ... c2h4_lw1x-no-diffuse-on-c_Compound_4.gbw
Electron density                                ... c2h4_lw1x-no-diffuse-on-c_Compound_4.scfp
The origin for moment calculation is the CENTER OF MASS  = ( 0.000000,  0.000000  0.000000)

-------------
DIPOLE MOMENT
-------------
                                X             Y             Z
Electronic contribution:     -0.00000      -0.00000       0.00000
Nuclear contribution   :      0.00000       0.00000       0.00000
                        -----------------------------------------
Total Dipole Moment    :     -0.00000      -0.00000       0.00000
                        -----------------------------------------
Magnitude (a.u.)       :      0.00000
Magnitude (Debye)      :      0.00000



--------------------
Rotational spectrum 
--------------------
 
Rotational constants in cm-1:     4.929580     1.011448     0.839251 
Rotational constants in MHz : 147785.094948 30322.437410 25160.105428 

 Dipole components along the rotational axes: 
x,y,z [a.u.] :     0.000000    -0.000000    -0.000000 
x,y,z [Debye]:     0.000000    -0.000000    -0.000000 

 

Timings for individual modules:

Sum of individual times         ...       14.929 sec (=   0.249 min)
GTO integral calculation        ...        0.638 sec (=   0.011 min)   4.3 %
Relativistic integrals          ...        0.900 sec (=   0.015 min)   6.0 %
SCF iterations                  ...        4.640 sec (=   0.077 min)  31.1 %
MP2 module                      ...        8.752 sec (=   0.146 min)  58.6 %
================================================================================

----- Orbital basis set information -----
Your calculation utilizes the basis: def2-SVP
   F. Weigend and R. Ahlrichs, Phys. Chem. Chem. Phys. 7, 3297 (2005).



----------------------------------------------------------------------------------------------
                                        COMPOUND BLOCK                                        
                                     SUMMARY OF VARIABLES                                     
----------------------------------------------------------------------------------------------

Variable Name                                           Value             Evaluation String
-------------                                           -----             -----------------
HF_DZ                                    |             -78.06347599    |  
EC_DZ                                    |              -0.37757932    |  
CC_DZ                                    |              -0.36791986    |  EC_DZ-T_DZ
T_DZ                                     |              -0.00965946    |  
HF_TZ                                    |             -78.06848804    |  
EC_TZ                                    |              -0.39515503    |  
CC_TZ                                    |              -0.38029220    |  EC_TZ-T_TZ
T_TZ                                     |              -0.01486283    |  
HF_CBS                                   |             -78.06924816    |  HF_TZ-(HF_TZ-HF_DZ)*3^-5/(3^-5-2^-5)
CC_CBS                                   |              -0.38241244    |  CC_TZ-(CC_TZ-CC_DZ)*3^-4.7405/(3^-4.7405-2^-4.7405)
T_CBS                                    |              -0.01877033    |  T_TZ-(T_TZ-T_DZ)*3^-2.0879/(3^-2.0879-2^-2.0879)
MP_FC                                    |             -78.40414925    |  
MP_FU                                    |             -78.52443239    |  
MP_CV                                    |              -0.12028314    |  MP_FU-MP_FC
LW1X                                     |             -78.59071408    |  HF_CBS+CC_CBS+T_CBS+MP_CV
                             ****ORCA TERMINATED NORMALLY****
TOTAL RUN TIME: 0 days 0 hours 3 minutes 16 seconds 877 msec
