
                                 *****************
                                 * O   R   C   A *
                                 *****************

                                            #,                                       
                                            ###                                      
                                            ####                                     
                                            #####                                    
                                            ######                                   
                                           ########,                                 
                                     ,,################,,,,,                         
                               ,,#################################,,                 
                          ,,##########################################,,             
                       ,#########################################, ''#####,          
                    ,#############################################,,   '####,        
                  ,##################################################,,,,####,       
                ,###########''''           ''''###############################       
              ,#####''   ,,,,##########,,,,          '''####'''          '####       
            ,##' ,,,,###########################,,,                        '##       
           ' ,,###''''                  '''############,,,                           
         ,,##''                                '''############,,,,        ,,,,,,###''
      ,#''                                            '''#######################'''  
     '                                                          ''''####''''         
             ,#######,   #######,   ,#######,      ##                                
            ,#'     '#,  ##    ##  ,#'     '#,    #''#        ######   ,####,        
            ##       ##  ##   ,#'  ##            #'  '#       #        #'  '#        
            ##       ##  #######   ##           ,######,      #####,   #    #        
            '#,     ,#'  ##    ##  '#,     ,#' ,#      #,         ##   #,  ,#        
             '#######'   ##     ##  '#######'  #'      '#     #####' # '####'        



                  #######################################################
                  #                        -***-                        #
                  #          Department of theory and spectroscopy      #
                  #    Directorship and core code : Frank Neese         #
                  #        Max Planck Institute fuer Kohlenforschung    #
                  #                Kaiser Wilhelm Platz 1               #
                  #                 D-45470 Muelheim/Ruhr               #
                  #                      Germany                        #
                  #                                                     #
                  #                  All rights reserved                #
                  #                        -***-                        #
                  #######################################################


                         Program Version 5.0.1 -  RELEASE  -


 With contributions from (in alphabetic order):
   Daniel Aravena         : Magnetic Suceptibility
   Michael Atanasov       : Ab Initio Ligand Field Theory (pilot matlab implementation)
   Alexander A. Auer      : GIAO ZORA, VPT2 properties, NMR spectrum
   Ute Becker             : Parallelization
   Giovanni Bistoni       : ED, misc. LED, open-shell LED, HFLD
   Martin Brehm           : Molecular dynamics
   Dmytro Bykov           : SCF Hessian
   Vijay G. Chilkuri      : MRCI spin determinant printing, contributions to CSF-ICE
   Dipayan Datta          : RHF DLPNO-CCSD density
   Achintya Kumar Dutta   : EOM-CC, STEOM-CC
   Dmitry Ganyushin       : Spin-Orbit,Spin-Spin,Magnetic field MRCI
   Miquel Garcia          : C-PCM and meta-GGA Hessian, CC/C-PCM, Gaussian charge scheme
   Yang Guo               : DLPNO-NEVPT2, F12-NEVPT2, CIM, IAO-localization
   Andreas Hansen         : Spin unrestricted coupled pair/coupled cluster methods
   Benjamin Helmich-Paris : MC-RPA, TRAH-SCF, COSX integrals
   Lee Huntington         : MR-EOM, pCC
   Robert Izsak           : Overlap fitted RIJCOSX, COSX-SCS-MP3, EOM
   Marcus Kettner         : VPT2
   Christian Kollmar      : KDIIS, OOCD, Brueckner-CCSD(T), CCSD density, CASPT2, CASPT2-K
   Simone Kossmann        : Meta GGA functionals, TD-DFT gradient, OOMP2, MP2 Hessian
   Martin Krupicka        : Initial AUTO-CI
   Lucas Lang             : DCDCAS
   Marvin Lechner         : AUTO-CI (C++ implementation), FIC-MRCC
   Dagmar Lenk            : GEPOL surface, SMD
   Dimitrios Liakos       : Extrapolation schemes; Compound Job, initial MDCI parallelization
   Dimitrios Manganas     : Further ROCIS development; embedding schemes
   Dimitrios Pantazis     : SARC Basis sets
   Anastasios Papadopoulos: AUTO-CI, single reference methods and gradients
   Taras Petrenko         : DFT Hessian,TD-DFT gradient, ASA, ECA, R-Raman, ABS, FL, XAS/XES, NRVS
   Peter Pinski           : DLPNO-MP2, DLPNO-MP2 Gradient
   Christoph Reimann      : Effective Core Potentials
   Marius Retegan         : Local ZFS, SOC
   Christoph Riplinger    : Optimizer, TS searches, QM/MM, DLPNO-CCSD(T), (RO)-DLPNO pert. Triples
   Tobias Risthaus        : Range-separated hybrids, TD-DFT gradient, RPA, STAB
   Michael Roemelt        : Original ROCIS implementation
   Masaaki Saitow         : Open-shell DLPNO-CCSD energy and density
   Barbara Sandhoefer     : DKH picture change effects
   Avijit Sen             : IP-ROCIS
   Kantharuban Sivalingam : CASSCF convergence, NEVPT2, FIC-MRCI
   Bernardo de Souza      : ESD, SOC TD-DFT
   Georgi Stoychev        : AutoAux, RI-MP2 NMR, DLPNO-MP2 response
   Willem Van den Heuvel  : Paramagnetic NMR
   Boris Wezisla          : Elementary symmetry handling
   Frank Wennmohs         : Technical directorship


 We gratefully acknowledge several colleagues who have allowed us to
 interface, adapt or use parts of their codes:
   Stefan Grimme, W. Hujo, H. Kruse, P. Pracht,  : VdW corrections, initial TS optimization,
                  C. Bannwarth, S. Ehlert          DFT functionals, gCP, sTDA/sTD-DF
   Ed Valeev, F. Pavosevic, A. Kumar             : LibInt (2-el integral package), F12 methods
   Garnet Chan, S. Sharma, J. Yang, R. Olivares  : DMRG
   Ulf Ekstrom                                   : XCFun DFT Library
   Mihaly Kallay                                 : mrcc  (arbitrary order and MRCC methods)
   Jiri Pittner, Ondrej Demel                    : Mk-CCSD
   Frank Weinhold                                : gennbo (NPA and NBO analysis)
   Christopher J. Cramer and Donald G. Truhlar   : smd solvation model
   Lars Goerigk                                  : TD-DFT with DH, B97 family of functionals
   V. Asgeirsson, H. Jonsson                     : NEB implementation
   FAccTs GmbH                                   : IRC, NEB, NEB-TS, DLPNO-Multilevel, CI-OPT
                                                   MM, QMMM, 2- and 3-layer-ONIOM, Crystal-QMMM,
                                                   LR-CPCM, SF, NACMEs, symmetry and pop. for TD-DFT,
                                                   nearIR, NL-DFT gradient (VV10), updates on ESD,
                                                   ML-optimized integration grids
   S Lehtola, MJT Oliveira, MAL Marques          : LibXC Library
   Liviu Ungur et al                             : ANISO software


 Your calculation uses the libint2 library for the computation of 2-el integrals
 For citations please refer to: http://libint.valeyev.net

 Your ORCA version has been built with support for libXC version: 5.1.0
 For citations please refer to: https://tddft.org/programs/libxc/

 This ORCA versions uses:
   CBLAS   interface :  Fast vector & matrix operations
   LAPACKE interface :  Fast linear algebra routines
   SCALAPACK package :  Parallel linear algebra routines
   Shared memory     :  Shared parallel matrices
   BLAS/LAPACK       :  OpenBLAS 0.3.15  USE64BITINT DYNAMIC_ARCH NO_AFFINITY SkylakeX SINGLE_THREADED
        Core in use  :  SkylakeX
   Copyright (c) 2011-2014, The OpenBLAS Project




################################################################################


                                COMPOUND JOB MainJOB 
Basename: c2h4_lw1x_Compound_0

################################################################################

================================================================================
                                       INPUT FILE
================================================================================
NAME = c2h4_lw1x_Compound_0.inp
|  1> %Maxcore 2000
|  2>  %Pal nprocs 5 End
|  3>  
|  4>  * xyz 0 1
|  5>  C        0.000000    0.000000    0.662598 
|  6>  H        0.000000    0.920944    1.232046 
|  7>  H       -0.000000   -0.920944    1.232046 
|  8>  C        0.000000    0.000000   -0.662598 
|  9>  H       -0.000000   -0.920944   -1.232046 
| 10>  H        0.000000    0.920944   -1.232046 
| 11>  *
| 12>  
| 13> 
| 14>                          ****END OF INPUT****
================================================================================
================================================================================

----- Orbital basis set information -----
Your calculation utilizes the basis: def2-SVP
   F. Weigend and R. Ahlrichs, Phys. Chem. Chem. Phys. 7, 3297 (2005).



################################################################################


                                COMPOUND JOB  1 
Basename: c2h4_lw1x_Compound_1
NOTE: please remember that MaxCore and PAL settings will be ignored.

################################################################################

================================================================================
                                       INPUT FILE
================================================================================
NAME = c2h4_lw1x_Compound_1.inp
|  1>     ! DefGrid3 RIJCOSX TightPNO DLPNO-CCSD(T1)-F12 MiniPrint NoPop
|  2>     %Basis
|  3>       Basis "maug-cc-pV(D+d)Z"
|  4>       AuxJ  "AutoAux"
|  5>       AuxC  "AutoAux"
|  6>       CABS  "AutoAux"
|  7>     End
|  8> 
|  9>                          ****END OF INPUT****
================================================================================
Warning! AutoAux has not been tested for CABS - use at your own risk!
================================================================================

----- Orbital basis set information -----
Your calculation utilizes the basis: jun-cc-pV(D+d)Z 
  E. Papajak, D. G. Truhlar, J. Chem. Theory Comput. 7, 10-18 (2011).

----- AuxJ basis set information -----
Your calculation utilizes the AutoAux generation procedure.
  G. L. Stoychev, A. A. Auer, F. Neese, J. Chem. Theory Comput. 13, 554 (2017)

----- AuxC basis set information -----
Your calculation utilizes the AutoAux generation procedure.
  G. L. Stoychev, A. A. Auer, F. Neese, J. Chem. Theory Comput. 13, 554 (2017)

----- CABS information -----
Your calculation utilizes the AutoAux generation procedure.
  G. L. Stoychev, A. A. Auer, F. Neese, J. Chem. Theory Comput. 13, 554 (2017)


                    <<< The CABS basis set will be decontracted >>>

================================================================================
                                        WARNINGS
                       Please study these warnings very carefully!
================================================================================


WARNING: Post HF methods need fully converged wavefunctions
  ===> : Setting SCFConvForced true
         You can overwrite this default with %scf ConvForced false 


WARNING: MDCI localization with Augmented Hessian Foster-Boys
  ===> : Switching off randomization!

INFO   : the flag for use of the SHARK integral package has been found!


                       ****************************
                       * Single Point Calculation *
                       ****************************

---------------------------------
CARTESIAN COORDINATES (ANGSTROEM)
---------------------------------
  C      0.000000    0.000000    0.662598
  H      0.000000    0.920944    1.232046
  H     -0.000000   -0.920944    1.232046
  C      0.000000    0.000000   -0.662598
  H     -0.000000   -0.920944   -1.232046
  H      0.000000    0.920944   -1.232046

----------------------------
CARTESIAN COORDINATES (A.U.)
----------------------------
  NO LB      ZA    FRAG     MASS         X           Y           Z
   0 C     6.0000    0    12.011    0.000000    0.000000    1.252129
   1 H     1.0000    0     1.008    0.000000    1.740332    2.328230
   2 H     1.0000    0     1.008   -0.000000   -1.740332    2.328230
   3 C     6.0000    0    12.011    0.000000    0.000000   -1.252129
   4 H     1.0000    0     1.008   -0.000000   -1.740332   -2.328230
   5 H     1.0000    0     1.008    0.000000    1.740332   -2.328230



           ************************************************************
           *        Program running with 5 parallel MPI-processes     *
           *              working on a common directory               *
           ************************************************************
------------------------------------------------------------------------------
                   ___                                                        
                  /   \      - P O W E R E D   B Y -                         
                 /     \                                                     
                 |  |  |   _    _      __       _____    __    __             
                 |  |  |  | |  | |    /  \     |  _  \  |  |  /  |          
                  \  \/   | |  | |   /    \    | | | |  |  | /  /          
                 / \  \   | |__| |  /  /\  \   | |_| |  |  |/  /          
                |  |  |   |  __  | /  /__\  \  |    /   |      \           
                |  |  |   | |  | | |   __   |  |    \   |  |\   \          
                \     /   | |  | | |  |  |  |  | |\  \  |  | \   \       
                 \___/    |_|  |_| |__|  |__|  |_| \__\ |__|  \__/        
                                                                              
                      - O R C A' S   B I G   F R I E N D -                    
                                      &                                       
                       - I N T E G R A L  F E E D E R -                       
                                                                              
 v1 FN, 2020, v2 2021                                                         
------------------------------------------------------------------------------


Reading SHARK input file c2h4_lw1x_Compound_1.SHARKINP.tmp ... ok
----------------------
SHARK INTEGRAL PACKAGE
----------------------

Number of atoms                             ...      6
Number of basis functions                   ...     56
Number of shells                            ...     28
Maximum angular momentum                    ...      2
Integral batch strategy                     ... SHARK/LIBINT Hybrid
RI-J (if used) integral strategy            ... SPLIT-RIJ (Revised 2003 algorithm where possible)
Printlevel                                  ...      1
Contraction scheme used                     ... SEGMENTED contraction
Coulomb Range Separation                    ... NOT USED
Exchange Range Separation                   ... NOT USED
Finite Nucleus Model                        ... NOT USED
Auxiliary Coulomb fitting basis             ... AVAILABLE
   # of basis functions in Aux-J            ...    352
   # of shells in Aux-J                     ...    136
   Maximum angular momentum in Aux-J        ...      3
Auxiliary J/K fitting basis                 ... NOT available
Auxiliary Correlation fitting basis         ... AVAILABLE
   # of basis functions in Aux-C            ...    352
   # of shells in Aux-C                     ...    136
   Maximum angular momentum in Aux-C        ...      3
Auxiliary 'external' fitting basis          ... NOT available
Integral threshold                          ...     1.000000e-10
Primitive cut-off                           ...     1.000000e-11
Primitive pair pre-selection threshold      ...     1.000000e-11

Calculating pre-screening integrals         ... done (  0.0 sec) Dimension = 28
Organizing shell pair data                  ... done (  0.0 sec)
Shell pair information
Total number of shell pairs                 ...       406
Shell pairs after pre-screening             ...       406
Total number of primitive shell pairs       ...      2476
Primitive shell pairs kept                  ...      2155
          la=0 lb=0:    136 shell pairs
          la=1 lb=0:    160 shell pairs
          la=1 lb=1:     55 shell pairs
          la=2 lb=0:     32 shell pairs
          la=2 lb=1:     20 shell pairs
          la=2 lb=2:      3 shell pairs

Calculating one electron integrals          ... done (  0.0 sec)
Calculating RI/J V-Matrix + Cholesky decomp.... done (  0.1 sec)
Calculating RI/C V-Matrix + Cholesky decomp.... done (  0.1 sec)
Calculating Nuclear repulsion               ... done (  0.0 sec) ENN=     33.481732371417 Eh

SHARK setup successfully completed in   0.4 seconds

Maximum memory used throughout the entire GTOINT-calculation: 12.1 MB


           ************************************************************
           *        Program running with 5 parallel MPI-processes     *
           *              working on a common directory               *
           ************************************************************

Diagonalization of the overlap matrix:
Smallest eigenvalue                        ... 5.952e-04
Time for diagonalization                   ...    0.014 sec
Threshold for overlap eigenvalues          ... 1.000e-08
Number of eigenvalues below threshold      ... 0
Time for construction of square roots      ...    0.009 sec
Total time needed                          ...    0.024 sec

Time for model grid setup =    0.066 sec

Loading Hartree-Fock densities                     ... done
Calculating cut-offs                               ... done
Initializing the effective Hamiltonian             ... done
Setting up the integral package (SHARK)            ... done
Starting the Coulomb interaction                   ... done (   0.1 sec)
Reading the grid                                   ... done
Mapping shells                                     ... done
Starting the XC term evaluation                    ... done (   0.0 sec)
Transforming the Hamiltonian                       ... done (   0.0 sec)
Diagonalizing the Hamiltonian                      ... done (   0.0 sec)
Back transforming the eigenvectors                 ... done (   0.0 sec)
Now organizing SCF variables                       ... done
--------------------
COSX GRID GENERATION
--------------------

GRIDX 1
-------
General Integration Accuracy     IntAcc      ... 4.020
Radial Grid Type                 RadialGrid  ... OptM3 with GC (2021)
Angular Grid (max. ang.)         AngularGrid ... 2 (Lebedev-110)
Angular grid pruning method      GridPruning ... 4 (adaptive)
Weight generation scheme         WeightScheme... Becke
Basis function cutoff            BFCut       ... 1.0000e-10
Integration weight cutoff        WCut        ... 1.0000e-14
Angular grids for H and He will be reduced by one unit
Partially contracted basis set               ... on
Rotationally invariant grid construction     ... off

Total number of grid points                  ...     7652
Total number of batches                      ...      122
Average number of points per batch           ...       62
Average number of grid points per atom       ...     1275
UseSFitting                                  ... on

GRIDX 2
-------
General Integration Accuracy     IntAcc      ... 4.338
Radial Grid Type                 RadialGrid  ... OptM3 with GC (2021)
Angular Grid (max. ang.)         AngularGrid ... 3 (Lebedev-194)
Angular grid pruning method      GridPruning ... 4 (adaptive)
Weight generation scheme         WeightScheme... Becke
Basis function cutoff            BFCut       ... 1.0000e-10
Integration weight cutoff        WCut        ... 1.0000e-14
Angular grids for H and He will be reduced by one unit
Partially contracted basis set               ... on
Rotationally invariant grid construction     ... off

Total number of grid points                  ...    16644
Total number of batches                      ...      263
Average number of points per batch           ...       63
Average number of grid points per atom       ...     2774
UseSFitting                                  ... on

GRIDX 3
-------
General Integration Accuracy     IntAcc      ... 4.871
Radial Grid Type                 RadialGrid  ... OptM3 with GC (2021)
Angular Grid (max. ang.)         AngularGrid ... 4 (Lebedev-302)
Angular grid pruning method      GridPruning ... 4 (adaptive)
Weight generation scheme         WeightScheme... Becke
Basis function cutoff            BFCut       ... 1.0000e-10
Integration weight cutoff        WCut        ... 1.0000e-14
Angular grids for H and He will be reduced by one unit
Partially contracted basis set               ... on
Rotationally invariant grid construction     ... off

Total number of grid points                  ...    32842
Total number of batches                      ...      516
Average number of points per batch           ...       63
Average number of grid points per atom       ...     5474
UseSFitting                                  ... on

Time for X-Grid setup             =    0.771 sec

 re-compute Schwartz prescreening matrix in partically contracted basis (1) ...done (   0.104 sec)
--------------
SCF ITERATIONS
--------------
ITER       Energy         Delta-E        Max-DP      RMS-DP      [F,P]     Damp
               ***  Starting incremental Fock matrix formation  ***
  0    -77.9282640784   0.000000000000 0.05070842  0.00284312  0.1872208 0.7000
  1    -77.9681241688  -0.039860090384 0.03880534  0.00221551  0.1254045 0.7000
                               ***Turning on DIIS***
  2    -77.9927410369  -0.024616868106 0.08339867  0.00491318  0.0768670 0.0000
  3    -77.8512167254   0.141524311545 0.01539261  0.00096254  0.0255299 0.0000
  4    -78.0191802523  -0.167963526945 0.00288671  0.00026219  0.0046925 0.0000
                      *** Initiating the SOSCF procedure ***
                           *** Shutting down DIIS ***
                      *** Re-Reading the Fockian *** 
                      *** Removing any level shift *** 
ITER      Energy       Delta-E        Grad      Rot      Max-DP    RMS-DP
  5    -78.03826123  -0.0190809730  0.001336  0.001336  0.000812  0.000097
               *** Restarting incremental Fock matrix formation ***
  6    -78.04198020  -0.0037189762  0.000298  0.000355  0.000479  0.000043
                 **** Energy Check signals convergence ****
              ***Rediagonalizing the Fockian in SOSCF/NRSCF***

               *****************************************************
               *                     SUCCESS                       *
               *           SCF CONVERGED AFTER   7 CYCLES          *
               *****************************************************

Old exchange energy                            =    -11.746132815 Eh
New exchange energy                            =    -11.746149787 Eh
Exchange energy change after final integration =     -0.000016972 Eh
Total energy after final integration           =    -78.041998117 Eh
Final COS-X integration done in                =     0.255 sec
Total Energy       :          -78.04199812 Eh           -2123.63073 eV
  Last Energy change         ...   -9.4287e-07  Tolerance :   1.0000e-06
  Last MAX-Density change    ...    1.5543e-15  Tolerance :   1.0000e-05
             **** THE GBW FILE WAS UPDATED (c2h4_lw1x_Compound_1.gbw) ****
             **** DENSITY c2h4_lw1x_Compound_1.scfp WAS UPDATED ****
             **** ENERGY FILE WAS UPDATED (c2h4_lw1x_Compound_1.en.tmp) ****
             **** THE GBW FILE WAS UPDATED (c2h4_lw1x_Compound_1.gbw) ****
             **** DENSITY c2h4_lw1x_Compound_1.scfp WAS UPDATED ****
----------------
ORBITAL ENERGIES
----------------

  NO   OCC          E(Eh)            E(eV) 
   0   2.0000     -11.239499      -305.8423 
   1   2.0000     -11.237772      -305.7953 
   2   2.0000      -1.038566       -28.2608 
   3   2.0000      -0.793382       -21.5890 
   4   2.0000      -0.643473       -17.5098 
   5   2.0000      -0.589894       -16.0518 
   6   2.0000      -0.505112       -13.7448 
   7   2.0000      -0.378386       -10.2964 
   8   0.0000       0.070401         1.9157 
   9   0.0000       0.092390         2.5141 
  10   0.0000       0.102881         2.7995 
  11   0.0000       0.102939         2.8011 
  12   0.0000       0.122516         3.3338 
  13   0.0000       0.125998         3.4286 
  14   0.0000       0.150585         4.0976 
  15   0.0000       0.223425         6.0797 
  16   0.0000       0.250173         6.8076 
  17   0.0000       0.281971         7.6728 
  18   0.0000       0.306953         8.3526 
  19   0.0000       0.357249         9.7213 
  20   0.0000       0.416480        11.3330 
  21   0.0000       0.490342        13.3429 
  22   0.0000       0.667797        18.1717 
  23   0.0000       0.698893        19.0178 
  24   0.0000       0.808354        21.9964 
  25   0.0000       0.856918        23.3179 
  26   0.0000       0.879920        23.9439 
  27   0.0000       0.887140        24.1403 
  28   0.0000       0.948756        25.8170 
  29   0.0000       0.982834        26.7443 
  30   0.0000       1.010772        27.5045 
  31   0.0000       1.020517        27.7697 
  32   0.0000       1.126821        30.6624 
  33   0.0000       1.244801        33.8728 
  34   0.0000       1.263659        34.3859 
  35   0.0000       1.288897        35.0727 
  36   0.0000       1.291528        35.1443 
  37   0.0000       1.604697        43.6660 
  38   0.0000       1.740447        47.3600 
  39   0.0000       1.761186        47.9243 
  40   0.0000       1.831978        49.8507 
  41   0.0000       1.894333        51.5474 
  42   0.0000       1.901722        51.7485 
  43   0.0000       1.951090        53.0918 
  44   0.0000       1.965612        53.4870 
  45   0.0000       1.985066        54.0164 
  46   0.0000       2.229722        60.6738 
  47   0.0000       2.264936        61.6320 
  48   0.0000       2.367481        64.4224 
  49   0.0000       2.489436        67.7410 
  50   0.0000       2.529021        68.8182 
  51   0.0000       2.677740        72.8650 
  52   0.0000       2.726895        74.2026 
  53   0.0000       2.829289        76.9889 
  54   0.0000       3.143104        85.5282 
  55   0.0000       3.408530        92.7508 
Total SCF time: 0 days 0 hours 0 min 4 sec 

Maximum memory used throughout the entire SCF-calculation: 44.4 MB


           ************************************************************
           *        Program running with 5 parallel MPI-processes     *
           *              working on a common directory               *
           ************************************************************


------------------------------------------------------------------------------- 
                              ORCA-MATRIX DRIVEN CI                            
------------------------------------------------------------------------------- 


Wavefunction type
-----------------
Correlation treatment                      ...      CCSD     
Single excitations                         ... ON
Orbital optimization                       ... OFF
Calculation of Z vector                    ... OFF
Calculation of Brueckner orbitals          ... OFF
Perturbative triple excitations            ... ON
Calculation of F12 correction              ... ON
   Using RI for F12 correction             ... ON
   GSO occupation number cut-off           ... 0.000e+00
Frozen core treatment                      ... chemical core (4 el)
Reference Wavefunction                     ... RHF
  Internal Orbitals:     2 ...    7 (  6 MO's/ 12 electrons)
  Virtual  Orbitals:     8 ...   55 ( 48 MO's              )
Number of AO's                             ...     56
Number of electrons                        ...     16
Number of correlated electrons             ...     12

Algorithmic settings
--------------------
Integral transformation                    ... All integrals via the RI transformation
K(C) Formation                             ... RI-DLPNO
   PNO-Integral Storage                    ... ON DISK
   PNO occupation number cut-off           ... 1.000e-07
   Singles PNO occupation number cut-off   ... 3.000e-09
   PNO Mulliken prescreening cut-off       ... 1.000e-03
   Domain cut-off (Mulliken population)    ... 1.000e-03
   PNO Normalization                       ...    1
Maximum number of iterations               ...        50
Convergence tolerance (max. residuum)      ... 2.500e-05
Level shift for amplitude update           ... 2.000e-01
Maximum number of DIIS vectors             ...         7
DIIS turned on at iteration                ...         0
Damping before turning on DIIS             ...     0.500
Damping after turning on DIIS              ...     0.000
Pair specific amplitude update             ... OFF
Natural orbital iterations                 ... OFF
Perturbative natural orbital generation    ... OFF
Printlevel                                 ... 2

Singles Fock matrix elements calculated using PNOs.

Memory handling:
----------------
Maximum memory for working arrays          ...   2000 MB
Data storage in matrix containers          ... UNCOMPRESSED
Data type for integral storage             ... DOUBLE
In-Core Storage of quantities:
   Amplitudes+Sigma Vector      ... NO
   J+K operators                ... NO
   DIIS vectors                 ... NO
   3-external integrals         ... NO
   4-external integrals         ... NO

Localization treatment:
-----------------------
Localization option                        ...    6
Localization threshhold                    ... -1.0e+00
Using relative localization threshhold     ... 1.0e-08
Neglect threshold for strong pairs         ... 1.000e-05 Eh
Prescreening threshold for very weak pairs ... 1.000e-07 Eh

Initializing the integral package          ... done
Localizing the valence orbitals
------------------------------------------------------------------------------
                           ORCA ORBITAL LOCALIZATION
------------------------------------------------------------------------------

Input orbitals are from                  ... c2h4_lw1x_Compound_1.gbw
Output orbitals are to                   ... c2h4_lw1x_Compound_1.loc
Max. number of iterations                ... 128
Localizations seeded randomly            ... off
Convergence tolerance                    ... 1.000e-06
Using relative localization threshhold   ... 1.000e-08
Treshold for strong local MOs            ... 9.500e-01
Treshold for bond MOs                    ... 8.500e-01
Operator                                 ... 0
Orbital range for localization           ... 2 to 7
Localization criterion                   ... FOSTER-BOYS (AUGMENTED HESSIAN)
Doing the dipole integrals     ... o.k.
Initial value of the localization sum :    15.860256
ITERATION   0 : L=   21.4115394933 DL=  5.55e+00 (AVERGE_DL)=    0.6083465847 
ITERATION   1 : L=   22.0916984002 DL=  6.80e-01 (AVERGE_DL)=    0.2129411354 
ITERATION   2 : L=   22.0923725245 DL=  6.74e-04 (AVERGE_DL)=    0.0067038514 
ITERATION   3 : L=   22.0923743326 DL=  1.81e-06 (AVERGE_DL)=    0.0003471886 
ITERATION   4 : L=   22.0923743372 DL=  4.52e-09 (AVERGE_DL)=    0.0000173574 
LOCALIZATION SUM CONVERGED

------------------------------------------------------
AUGMENTED HESSIAN OPTIMIZATION OF FOSTER-BOYS ORBITALS
------------------------------------------------------

Spin operator:           0
Orbital window:          2 to 7
Number of iterations:    128
Gradient tolerance:      1.000e-06
Number of pairs:         15
Davidson threshold:      2000
Diagonalization method:  LAPACK
Iter:    0   L: 22.0923743372   Grad. norm: 4.046456e-05
   *** Likely close to a maximum now. ***
       Augmented Hessian eigenvalues:  8.39e-11 -5.35e+00 -1.82e+01 -1.88e+01 ... 
Iter:    1   L: 22.0923743372   Grad. norm: 5.982747e-12
LOCALIZATION HAS CONVERGED.

Eigenvalues of the Hessian:
  0 -5.349e+00
  1 -1.815e+01
  2 -1.880e+01
  3 -1.980e+01
  4 -2.080e+01
  5 -2.247e+01
  6 -2.255e+01
  7 -2.350e+01
  8 -2.387e+01
  9 -2.392e+01
    ...


------------------------------------------------------------------------------- 
                    LOCALIZED MOLECULAR ORBITAL COMPOSITIONS                   
------------------------------------------------------------------------------- 

The Mulliken populations for each LMO on each atom are computed
The LMO`s will be ordered according to atom index and type
  (A) Strongly localized MO`s have populations of >=0.950 on one atom
  (B) Two center bond orbitals have populations of >=0.850 on two atoms
  (C) Other MO`s are considered to be `delocalized`

FOUND  -   0 strongly local MO`s
       -   6 two center bond MO`s
       -   0 significantly delocalized MO`s

Bond-like localized orbitals:
MO   7:   5H  -   0.475473  and   3C  -   0.546476
MO   6:   4H  -   0.475473  and   3C  -   0.546476
MO   5:   3C  -   0.504287  and   0C  -   0.504287
MO   4:   3C  -   0.504287  and   0C  -   0.504287
MO   3:   2H  -   0.475473  and   0C  -   0.546476
MO   2:   1H  -   0.475473  and   0C  -   0.546476
Localized MO's were stored in: c2h4_lw1x_Compound_1.loc

Localizing the core orbitals
------------------------------------------------------------------------------
                           ORCA ORBITAL LOCALIZATION
------------------------------------------------------------------------------

Input orbitals are from                  ... c2h4_lw1x_Compound_1.loc
Output orbitals are to                   ... c2h4_lw1x_Compound_1.loc
Max. number of iterations                ... 128
Localizations seeded randomly            ... off
Convergence tolerance                    ... 1.000e-06
Using relative localization threshhold   ... 1.000e-08
Treshold for strong local MOs            ... 9.500e-01
Treshold for bond MOs                    ... 8.500e-01
Operator                                 ... 0
Orbital range for localization           ... 0 to 1
Localization criterion                   ... FOSTER-BOYS (AUGMENTED HESSIAN)
Doing the dipole integrals     ... o.k.
Initial value of the localization sum :     3.135674
ITERATION   0 : L=    3.1356766162 DL=  2.61e-06 (AVERGE_DL)=    0.0016153651 
ITERATION   1 : L=    3.1356766162 DL=  0.00e+00 (AVERGE_DL)=    0.0000000000 
LOCALIZATION SUM CONVERGED

------------------------------------------------------
AUGMENTED HESSIAN OPTIMIZATION OF FOSTER-BOYS ORBITALS
------------------------------------------------------

Spin operator:           0
Orbital window:          0 to 1
Number of iterations:    128
Gradient tolerance:      1.000e-06
Number of pairs:         1
Davidson threshold:      2000
Diagonalization method:  LAPACK
Iter:    0   L: 3.1356766162   Grad. norm: 9.463177e-18
   *** Likely close to a maximum now. ***
       Augmented Hessian eigenvalues:  3.57e-36 -2.51e+01
Iter:    1   L: 3.1356766162   Grad. norm: 1.619173e-33
LOCALIZATION HAS CONVERGED.

Eigenvalues of the Hessian:
  0 -2.509e+01


------------------------------------------------------------------------------- 
                    LOCALIZED MOLECULAR ORBITAL COMPOSITIONS                   
------------------------------------------------------------------------------- 

The Mulliken populations for each LMO on each atom are computed
The LMO`s will be ordered according to atom index and type
  (A) Strongly localized MO`s have populations of >=0.950 on one atom
  (B) Two center bond orbitals have populations of >=0.850 on two atoms
  (C) Other MO`s are considered to be `delocalized`

FOUND  -   2 strongly local MO`s
       -   0 two center bond MO`s
       -   0 significantly delocalized MO`s

Rather strongly localized orbitals:
MO   1:   3C  -   1.000262
MO   0:   0C  -   1.000262
Localized MO's were stored in: c2h4_lw1x_Compound_1.loc

Warning: reference  - re-canonicalizations have been set to INT 1 VIRT 1
Warning: internal orbitals are localized - no re-canonicalization of internal orbitals
Warning: UsePNO is turned on - no re-canonicalization of internal and virtual orbitals

--------------------------
CLOSED-SHELL FOCK OPERATOR
--------------------------

Restoring SHARK [2] ... ok
Entering RIJCOSX section for the Fock matrix
Trying to retrieve the full J-matrix              ... done
Updating the Fock matrix                          ... done
Making the frozen core Coulomb matrix             ... SHARKdone
Retrieving the full K-matrix                      ... done
Calculating the frozen core K-matrix              ... done
Updating the Fock matrix                          ... done
Time needed for Fock operator              ...            0.367 sec
Reference energy                           ...    -78.041992464

------------------------------
Initializing F12 data
------------------------------

Mapping basis set                  ... done
Dimension of the orbital basis set  = 56
Dimension of the CABS basis set     = 352
Dimension of the AUX basis set      = 352
Threshold for CABS orthogonalization = 1.000e-08
Will use an exponential correlation factor -Exp(-gamma r12)/gamma (gamma= 1.200) fit to 6 Gaussians 
Correlation factor:   
  NGauss  :          6      
  Gaussian expansion: 
    a(0)=     0.275538291  d(0)=    -0.219608291 
    a(1)=     1.140545861  d(1)=    -0.254494187 
    a(2)=     3.958256986  d(2)=    -0.154545985 
    a(3)=    13.126859124  d(3)=    -0.093273119 
    a(4)=    49.287410844  d(4)=    -0.057916694 
    a(5)=   272.920095267  d(5)=    -0.035942168 
Calculating one-electron matrices                       ... done (      0.1 sec)
Calculating pre-screening matrices:                     ...
       .... 1/r12 done          (      0.2 sec)
       .... f12/r12 done        (      0.1 sec)
       .... f12 done            (      0.1 sec)
       .... f12^2 done          (      0.1 sec)
       .... [f12,[T1,f12]] done (      0.2 sec)
                                                        ... done (      0.7 sec)
Making CABS spaces                                      ... done (      0.0 sec)
Calculating 2-index 2-center F12 integrals              ... 
Two index explicit correlation integrals  op=0          ... done (      0.0 sec) 
Two index explicit correlation integrals  op=1          ... done (      0.0 sec) 
Two index explicit correlation integrals  op=2          ... done (      0.0 sec) 
Two index explicit correlation integrals  op=3          ... done (      0.1 sec) 
Two index explicit correlation integrals  op=4          ... done (      0.1 sec) 
                                                            done (      0.2 sec)

--------------
DLPNO SETTINGS (2015 fully linear scaling implementation)
--------------

TCutMKN:           1.000e-03
TCutPAO:           1.000e-03
TCutPNO:           1.000e-07
TCutPNOSingles:    3.000e-09
TCutEN:            9.700e-01
TCutPAOExt:        1.000e-01
TCutPairs:         1.000e-05
TCutPre:           1.000e-07
TCutOSV:           1.000e-06
TCutDOij:          1.000e-05
TCutDO:            5.000e-03
TCutC:             1.000e-04
TCutCPAO:          1.000e-03
TCutCMO:           1.000e-03
TScaleDOMP2PreScr: 2.000e+00
TScaleMKNMP2PreScr:1.000e+01
TScalePNOMP2PreScr:1.000e+00
PAO overlap thresh 1.000e-08
Using PNOs for Singles Fock computation
Use new domains
Use fully linear algorithm
TCutTNO:           1.000e-09
TCutMP2Pairs:      1.000e-06
TCutDOStrong:      2.000e-03
TCutMKNStrong:     1.000e-02
TCutMKNWeak:       1.000e-01
TCutDOWeak:        4.000e-03
NTCutTNO:          1

--------------------------
Mulliken population of the LMOs            ... ok
Performing proximity check                 ... No problems found
Calculating differential overlap integrals ... ok

--------------------------
ELECTRON PAIR PRESCREENING
--------------------------

Dipole-based pair screening          .... used

   TCutDOij = 1.000000e-05
   TCutPre  = 1.000000e-07
   .... Finished loop over pairs
Total time spent in the prescreening                  ...     0.001 sec
sum of pair energies estimated for screened out pairs ...       0.000000000000 Eh
Thresholds for map construction and integral transformation for crude MP2:
   TCutMKN                    ...     1.0e-02
   TCutDO                     ...     1.0e-02
   TCutPairs                  ...     1.0e-05
   TCutPNO_CrudeMP2           ...     1.0e-07
   TCutPNOSingles_CrudeMP2    ...     3.0e-09
--------------------------------
LOCAL RI TRANSFORMATION (IAVPAO)
--------------------------------

Orbital window:       2 to 7
Number of PAOs:      56
Basis functions:     56 (28 shells)
Aux. functions:     352 (136 shells)
Use SHARK:           on

Processing maps (0.0 sec)
Average map sizes:
   Aux shells -> MOs               6.0
   Aux shells -> PAOs             56.0
   MOs        -> AO shells        28.0
   PAOs       -> AO shells        28.0

Calculating integrals (0.2 sec, 0.906 MB)
Sorting integrals (0.0 sec, 0.902 MB)
Total time for the integral transformation: 0.2 sec
--------------------------------
INITIAL GUESS AND PNO GENERATION
--------------------------------

PNO truncation parameters                   .... 
    PAOOverlapThresh   =        1.000e-08

    TCutPairs          =        1.000e-05
    TCutPNO            =        1.000e-07
    TCutPNOSingles     =        3.000e-09
    TCutMP2Pairs       =        1.000e-06
    TCutMKN            =        1.000e-02
    TCutDO             =        1.000e-02

Pair selection                          .... not used
Type of local MP2 treatment                 .... semi-local MP2
Strategy for PNO selection                  .... occupation number selection
Pair density normalization                  .... MP2 norm
Spin component scaling                      .... not used

   .... Finished loop over pairs
Making pair pair interaction lists          ... done

                       ===========================
                         21 OF   21 PAIRS ARE KEPT CCSD PAIRS
                          0 OF   21 PAIRS ARE KEPT MP2 PAIRS FOR (T)
                          0 OF   21 PAIRS ARE SKIPPED
                       ===========================

Total time spent in the initial guess                 ...     0.034 sec
SL-MP2 correlation energy (all non-screened pairs)    ...      -0.265797255105 Eh

Initial PNO correlation energy                        ...      -0.265773502008 Eh
sum of pair energies prescreened and skipped MP2 pairs...       0.000000000000 Eh
sum of pair energies of crude MP2 skipped pairs only  ...       0.000000000000 Eh
sum of MP2 pair energies for pairs that were not kept ...       0.000000000000 Eh
sum of PNO error estimates for the kept pairs         ...      -0.000023753097 Eh
                                                          --------------------
sum of all corrections                                         -0.000023753097
Initial total correlation energy                               -0.265797255105
Thresholds for map construction and integral transformation for fine MP2 and CCSD(T) calculation:
   TCutMKN   ...     1.0e-03
   TCutDO    ...     5.0e-03
   TCutPairs ...     1.0e-05
   TCutCMO   ...     1.0e-03
   TCutCPAO  ...     1.0e-03

Thresholds for map construction and integral transformation for strong Triples:
   TCutMKN   ...     1.0e-02
   TCutDO    ...     1.0e-02
   TCutCMO   ...     1.0e-03
   TCutCPAO  ...     1.0e-03

Thresholds for map construction and integral transformation for weak Triples:
   TCutMKN   ...     1.0e-01
   TCutDO    ...     2.0e-02
   TCutCMO   ...     1.0e-03
   TCutCPAO  ...     1.0e-03

--------------------------------
LOCAL RI TRANSFORMATION (IAVPAO)
--------------------------------

Orbital window:       2 to 7
Number of PAOs:      56
Basis functions:     56 (28 shells)
Aux. functions:     352 (136 shells)
Use SHARK:           on

Processing maps (0.0 sec)
Average map sizes:
   Aux shells -> MOs               6.0
   Aux shells -> PAOs             56.0
   MOs        -> AO shells        28.0
   PAOs       -> AO shells        28.0

Calculating integrals (0.2 sec, 0.906 MB)
Sorting integrals (0.0 sec, 0.902 MB)
Total time for the integral transformation: 0.2 sec
--------------------------------
INITIAL GUESS AND PNO GENERATION
--------------------------------

PNO truncation parameters                   .... 
    ScaleTCutPNO       =        1.000e-02
    PAOOverlapThresh   =        1.000e-08

    TCutPairs          =        1.000e-05
    TCutPNO            =        1.000e-07
    TCutPNOSingles     =        3.000e-09
    TCutMP2Pairs       =        1.000e-06
    TCutMKN            =        1.000e-03
    TCutDO             =        5.000e-03

Pair selection                          .... not used
Type of local MP2 treatment                 .... full local PMP2
Strategy for PNO selection                  .... occupation number selection
Pair density normalization                  .... MP2 norm
Spin component scaling                      .... not used

PASS-1: Formation of initial guess LMP2 amplitudes
Initial amplitudes guess done. Entering LMP2 iteration loop:
   Max. no of iterations          ...  50
   Energy convergence tolerance   ...    1.0e-07
   Residual convergence tolerance ...    5.0e-07
   Fock matrix cutoff             ...    1.0e-05 Eh
   DIIS convergence acceleration parameters:
        Max # vectors in DIIS     ... 7
        Start iteration of DIIS   ... 0
        Levelshift                ... 2.000e-01
        Damping factor 1          ... 5.000e-01
        Damping factor 2          ... 1.000e+00
   L-MP2 PNO cut-off              ...   1.0e-09
   L-MP2 PNO cut-off (core)       ...   1.0e-11
                           *** Turning on DIIS ***
LMP2-Iter=   0:  ELMP2= -0.271277173570  DE=   5.4e-03 RMAX=   1.3e-02
LMP2-Iter=   1:  ELMP2= -0.274686465903  DE=   3.4e-03 RMAX=   2.9e-03
LMP2-Iter=   2:  ELMP2= -0.275433761533  DE=   7.5e-04 RMAX=   1.7e-03
LMP2-Iter=   3:  ELMP2= -0.275496937666  DE=   6.3e-05 RMAX=   3.0e-04
LMP2-Iter=   4:  ELMP2= -0.275486121535  DE=   1.1e-05 RMAX=   7.5e-05
LMP2-Iter=   5:  ELMP2= -0.275485412669  DE=   7.1e-07 RMAX=   1.6e-05
LMP2-Iter=   6:  ELMP2= -0.275485506608  DE=   9.4e-08 RMAX=   4.0e-06
LMP2-Iter=   7:  ELMP2= -0.275485550912  DE=   4.4e-08 RMAX=   1.0e-06
LMP2-Iter=   8:  ELMP2= -0.275485550506  DE=   4.1e-10 RMAX=   2.0e-07
LMP2-Iter=   9:  ELMP2= -0.275485548529  DE=   2.0e-09 RMAX=   4.6e-08 => CONVERGED
PASS-2: Formation of Pair natural orbitals
   .... Finished loop over pairs

 PNO Occupation Number Statistics: 
  | Av. % of trace(Dij) retained        ...  99.989837765651
  | sigma^2 in % of trace(Dij) retained ...   1.88e-04
  | Av. % of trace(Di) retained         ...  99.999955615604
  | sigma^2 in % of trace(Di) retained  ...   6.80e-10
 Distributions of % trace(Dij) recovered:
  |       >= 99.9  ...    21 (100.0 % of all pairs)
 Distributions of % trace(Di) recovered :
  |       >= 99.9  ...     6 (100.0 % of all I-pairs )

Making pair pair interaction lists          ... done

                       ===========================
                         21 OF   21 PAIRS ARE KEPT
                       ===========================

Total time spent in the initial guess                 ...     1.510 sec
L-MP2 correlation energy (all non-screened pairs)     ...      -0.275485548529 Eh
L-MP2 PNO error correction                            ...      -0.000000057438 Eh
                                                          --------------------
Initial total L-MP2 energy (non-screened pairs)       ...      -0.275485605966 Eh

Initial PNO correlation energy                        ...      -0.275465326592 Eh
sum of pair energies estimated for screened out pairs ...       0.000000000000 Eh
sum of MP2 pair energies for pairs that were not kept ...       0.000000000000 Eh
sum of PNO error estimates for the kept pairs         ...      -0.000020279375 Eh
                                                          --------------------
sum of all corrections                                         -0.000020279375
Initial total correlation energy                               -0.275485605966
Thresholds for map construction and integral transformation for fine MP2 and CCSD(T) calculation:
   TCutMKN   ...     1.0e-03
   TCutDO    ...     5.0e-03
   TCutPairs ...     1.0e-05
   TCutCMO   ...     1.0e-03
   TCutCPAO  ...     1.0e-03

Number of pairs in F12 (TCutDOF12 = 3.000e-04)        ...     21

Time for aux screen maps:            0.001
Time for maps after fine MP2:            0.002
-----------------------------
LOCAL RI TRANSFORMATION (IJV)
-----------------------------

Orbital window:       2 to 7
Basis functions:     56 (28 shells)
Aux. functions:     352 (136 shells)
Use SHARK:           on

Processing maps (0.0 sec)
Average map sizes:
   Aux shells -> MOs(i)            6.0
   Aux shells -> MOs(j)            6.0
   MOs        -> AO shells        28.0

Calculating integrals (0.2 sec, 0.101 MB)
Sorting integrals (0.0 sec, 0.097 MB)
Total time for the integral transformation: 0.2 sec
--------------------------------
LOCAL RI TRANSFORMATION (VABPAO)
--------------------------------

Number of PAOs:      56
Basis functions:     56 (28 shells)
Aux. functions:     352 (136 shells)
Use SHARK:           on

Processing maps (0.0 sec)
Average map sizes:
   Aux shells -> PAOs             56.0
   PAOs       -> AO shells        28.0

Calculating integrals (0.2 sec, 8.426 MB)
Finished


-------------------------------------
Pair Pair Term precalculation with     
RI-(ij|mn) and (im|jn) transformation  
ON THE FLY                             
-------------------------------------

   IBatch   1 (of   1)              ... done (    0.601 sec)
Total EXT                           ...           0.601 sec

---------------------
RI-PNO TRANSFORMATION
---------------------

Total Number of PNOs                   ...   706
Average number of PNOs per pair        ...    33
Maximal number of PNOs per pair        ...    40
   #pairs with  1 -  5 PNOs   :    0
   #pairs with  6 - 10 PNOs   :    0
   #pairs with 11 - 15 PNOs   :    0
   #pairs with 16 - 20 PNOs   :    0
   #pairs with 21 - 25 PNOs   :    0
   #pairs with 26 - 30 PNOs   :    4
   #pairs with 31 - 35 PNOs   :    6
   #pairs with 36 - 40 PNOs   :   11
   #pairs with 41 - 45 PNOs   :    0
   #pairs with 46 - 50 PNOs   :    0

Generation of (ij|ab)[P] integrals            ... on
Generation of (ia|bc)[P],(ja|bc)[P] integrals ... on
Storage of 3 and 4 external integrals         ... on
Generation of ALL (ka|bc)[P] integrals        ... on
Keep RI integrals in memory                   ... off

Ibatch:  1 (of  1)
Starting 2-4 index PNO integral generation ... done

Timings:
Total PNO integral transformation time     ...          0.486 sec
Size of the 3-external file                ...         6 MB
Size of the 4-external file                ...        29 MB
Size of the IKJL file                      ...         0 MB
Size of the all 3-external file            ...        19 MB
Size of the 1-external file                ...         0 MB

Making pair/pair overlap matrices          ... done (    0.020 sec)
Size of the pair overlap file              ... 3 MB
Redoing the guess amplitudes               ... done (    0.003 sec)

-------------------------
FINAL STARTUP INFORMATION
-------------------------

E(0)                                       ...    -78.041992464
E(L-MP2)                                   ...     -0.275485606
E(L-MP2) including corrections             ...     -0.275485606
Initial E(tot)                             ...    -78.317478070
<T|T>                                      ...      0.091029431
Number of pairs included                   ... 21
Total number of pairs                      ... 21

------------------------------------------------
                  RHF COUPLED CLUSTER ITERATIONS
------------------------------------------------

Number of PNO amplitudes to be optimized   ...        24074
Number of non-PNO amplitudes               ...        48384
Untruncated number of regular amplitudes   ...        48384

Iter       E(tot)           E(Corr)          Delta-E          Residual     Time
  0    -78.307823762     -0.265811018      0.009674588      0.014664603    0.96
                           *** Turning on DIIS ***
  1    -78.331982170     -0.289969427     -0.024158409      0.008932172    1.03
  2    -78.344043234     -0.302030491     -0.012061064      0.005156873    0.91
  3    -78.346080511     -0.304067768     -0.002037277      0.002546934    0.91
  4    -78.346941971     -0.304929228     -0.000861460      0.001011117    0.93
  5    -78.347229632     -0.305216889     -0.000287661      0.000230760    0.99
  6    -78.347263674     -0.305250931     -0.000034041      0.000075277    1.07
  7    -78.347262450     -0.305249706      0.000001224      0.000034445    0.92
  8    -78.347263393     -0.305250650     -0.000000944      0.000014781    0.98
               --- The Coupled-Cluster iterations have converged ---
Making OccT1 to AO map ... ok
3-index local transformation (OBS,OBS/AUX) for   op=0   ... done (      0.1 sec)
3-index local transformation (OBS,CABS/AUX) for  op=0   ... done (      0.2 sec)
3-index local transformation (OBS,OBS/AUX) for   op=1   ... done (      0.1 sec)
3-index local transformation (OBS,CABS/AUX) for  op=1   ... done (      0.3 sec)
3-index local transformation (OBS,OBS/AUX) for   op=2   ... done (      0.1 sec)
3-index local transformation (OBS,CABS/AUX) for  op=2   ... done (      0.2 sec)
3-index local transformation (OBS,OBS/AUX) for   op=3   ... done (      0.1 sec)
3-index local transformation (OBS,CABS/AUX) for  op=3   ... done (      0.3 sec)
3-index local transformation (OBS,OBS/AUX) for   op=4   ... done (      0.2 sec)
3-index local transformation (OBS,CABS/AUX) for  op=4   ... done (      0.4 sec)
3-index local transformation (OBS,OBS/AUX) of (pa|X)    ... done (      0.2 sec)
3-index local transformation (OBS_T1,OBS/AUX) for op=0  ... done (      0.1 sec)
3-index local transformation (OBS_T1,OBS/AUX) for op=1  ... done (      0.1 sec)
3-index local transformation (OBS_F,OBS/AUX) for op=2   ... done (      0.1 sec)
3-index local transformation (OBS_F,CABS/AUX)for op=2   ... done (      0.3 sec)
------------------------
RHF DLPNO F12 CORRECTION
------------------------

Doing SCF density matrices                              ... done (      0.0 sec)
Calculating RI Coulomb operators
Retrieving the Coulomb fitting basis                    ... done
       .... OBS/OBS done        (      0.1 sec)
       .... CABS/OBS done       (      0.1 sec)
       .... CABS/CABS done      (      0.2 sec)

F12 OBS GRIDX
-------------

General Integration Accuracy     IntAcc      ... 4.338
Radial Grid Type                 RadialGrid  ... OptM3 with GC (2021)
Angular Grid (max. ang.)         AngularGrid ... 3 (Lebedev-194)
Angular grid pruning method      GridPruning ... 5 (extended)
Weight generation scheme         WeightScheme... Becke
Basis function cutoff            BFCut       ... 1.0000e-10
Integration weight cutoff        WCut        ... 1.0000e-14
Angular grids for H and He will be reduced by one unit
Partially contracted basis set               ... on
Rotationally invariant grid construction     ... off

Total number of grid points                  ...    43372
Total number of batches                      ...      681
Average number of points per batch           ...       63
Average number of grid points per atom       ...     7229

F12 CABS GRIDX
--------------

General Integration Accuracy     IntAcc      ... 4.338
Radial Grid Type                 RadialGrid  ... OptM3 with GC (2021)
Angular Grid (max. ang.)         AngularGrid ... 3 (Lebedev-194)
Angular grid pruning method      GridPruning ... 5 (extended)
Weight generation scheme         WeightScheme... Becke
Basis function cutoff            BFCut       ... 1.0000e-10
Integration weight cutoff        WCut        ... 1.0000e-14
Angular grids for H and He will be reduced by one unit
Partially contracted basis set               ... on
Rotationally invariant grid construction     ... off

Total number of grid points                  ...    43372
Total number of batches                      ...      681
Average number of points per batch           ...       63
Average number of grid points per atom       ...     7229

Calculating COSX Exchange operators
       .... OBS/OBS done        (      0.6 sec)
       .... CABS/OBS done       (      0.6 sec)
       .... CABS/CABS done      (      3.0 sec)
Completing Fock operators                               ... done (      0.0 sec)
Calculating F12 intermediates (incore)                  ... 

WARNING (ORCA_TOOLS): CalcCholeskyLLoc() returned with error 1
                      Potentially linear dependencies in the aux basis!



WARNING (ORCA_TOOLS): CalcCholeskyLLoc() returned with error 1
                      Potentially linear dependencies in the aux basis!



WARNING (ORCA_TOOLS): CalcCholeskyLLoc() returned with error 1
                      Potentially linear dependencies in the aux basis!



WARNING (ORCA_TOOLS): CalcCholeskyLLoc() returned with error 1
                      Potentially linear dependencies in the aux basis!



WARNING (ORCA_TOOLS): CalcCholeskyLLoc() returned with error 1
                      Potentially linear dependencies in the aux basis!


Total T*B*T Contribution              =   0.065741210840

Total V*T MP2 Contribution            =  -0.153266599913

Total V*T CCSD without S Contribution =  -0.127645205990

Total V*T CCSD with S Contribution    =  -0.128431955151

DeltaEC_MP2                           =  -0.087525389073

DeltaEC_CCSD without S                =  -0.061903995150

DeltaEC_CCSD with S                   =  -0.062690744311
Total time of computation of intermediates                       (      0.9 sec)
Calculating correlation correction                      ... done (      0.0 sec)

F12 correction                   :  -0.062690744311
HF basis set correction          :  -0.024011753291
Sum of the two                   :  -0.086702497602

Total time for F12 correction    :     6.305 sec
  .... cleaning up and leaving F12-CCSD

----------------------
COUPLED CLUSTER ENERGY
----------------------

Uncorrected 0th order energy               ...    -78.041992464
F12-HF basis set correction                ...     -0.024011753
Corrected 0th order energy                 ...    -78.066004217

E(CORR)(strong-pairs)                      ...     -0.305250650
E(CORR)(weak-pairs)                        ...     -0.000020279
E(CORR)(corrected)                         ...     -0.305270929
Uncorrected correlation energy             ...     -0.305250650
F12-correction to the correlation energy   ...     -0.062690744
Final F12 correlation energy               ...     -0.367961673

E(TOT)-before F12 corrections              ...    -78.347263393
E(TOT)-after HF correction                 ...    -78.371275146
E(TOT)-after all F12 corrections           ...    -78.433965891

Singles Norm <S|S>**1/2                    ...      0.035159055  
T1 diagnostic                              ...      0.010149545  

------------------
LARGEST AMPLITUDES
------------------
   5-> 12   4-> 12       0.041827
   5-> 11   5-> 11       0.040975
   4-> 11   4-> 11       0.040975
   5-> 11   5->  8       0.032893
   5->  8   5-> 11       0.032893
   4-> 11   4->  8       0.032893
   4->  8   4-> 11       0.032893
   5-> 12   4->  9       0.031517
   5->  9   4-> 12       0.031517
   7-> 17   7-> 17       0.029034
   6-> 17   6-> 17       0.029034
   3-> 17   3-> 17       0.029034
   2-> 17   2-> 17       0.029034
   5->  8   5->  8       0.027216
   4->  8   4->  8       0.027216
   7-> 11   7-> 11       0.024713


-------------------------------------------
DLPNO BASED TRIPLES CORRECTION
-------------------------------------------

Singles multiplier          ...  1.000000
TCutTNO                     ... 1.000e-09
TCutMP2Pairs                ... 1.000e-06
TCutDOStrong                ... 1.000e-02
TCutMKNStrong               ... 1.000e-02
TCutDOWeak                  ... 2.000e-02
TCutMKNWeak                 ... 1.000e-01

Parameters used in iterative triples
TCutFock                    ... 1.000e-03
TCutWeak                    ... 1.000e-08
TCutWeakGuess               ... 6.000e-06
TCutIter                    ... 1.000e-03
TNOScaleS                   ... 1.000e+01
TNOScaleW                   ... 1.000e+02
ETol                        ... 1.000e-04

Fragment selection                          .... not used
Number of Triples that are to be computed   ...        50

 . . . . . . . . .
10% done  
20% done  
30% done  
40% done  
50% done  
60% done  
70% done  
80% done  
90% done               (      1.217 sec)

-------------------
Triples Iterations:
-------------------

The T1 Strong/Weak pair is = 30/20 

Iter        E(Triple)      Delta-E            Time
  0     0.000000000000    0.009449475081      1.25
  1    -0.009863725289    0.000414250208      0.99
  2    -0.009910389298    0.000046664009      0.85

------------------
TRIPLES CORRECTION
------------------

The Conventional (T0) is    -0.009458753613
The Truncated    (T0) is    -0.009449475081
The corrected     (T) is    -0.009919667830

Triples timings:
Total time for T0               ...     2.133 sec
Total time for Iterative (T)    ...     1.980 sec
Total time of overall (T)       ...     4.439 sec

Triples List generation         ...     0.000 sec
TNO generation                  ...     0.028 sec
Pair density generation         ...     0.000 sec
Look up tables                  ...     0.000 sec
Generating 3-index integrals    ...     0.255 sec
  Make 4-ind.int. from 3-ind.int...     0.087 sec
  Projecting amplitudes (D + S) ...     0.007 sec
  Downprojecting integrals      ...     0.086 sec
  Energy contr. (sum over a,b,c)...     0.711 sec
Fitting ET(->0)                 ...     0.000 sec

Everything after 3-index        ...     0.962 sec

Timing details:
 TNO integrals                  ...     0.335 sec
   Reading 3-index integrals    ...     0.161 sec
   Sorting integrals            ...     0.028 sec
       Sorting integrals 1      ...     0.000 sec
       Sorting integrals 2      ...     0.011 sec
       Sorting integrals 3      ...     0.004 sec
       Sorting integrals 4      ...     0.000 sec
       Sorting integrals 5      ...     0.001 sec
       Sorting integrals 6      ...     0.011 sec
   Calculating local VM**-1/2   ...     0.010 sec
   Orthogonal. integrals        ...     0.026 sec
   Multipl. 3-index integrals   ...     0.110 sec
   All concerning IRIab (w/TNO) ...     0.036 sec

 Calculate W0/W1                ...     0.070 sec
 W 3-ext contribution           ...     0.040 sec
 W 3-int contribution           ...     0.009 sec
 Sorting W                      ...     0.018 sec

 V exchange contribution        ...     0.055 sec

 Timings for Triples without generation
     of 3-index integrals       ...     0.962 sec
       0 weak pairs             ...     0.962 sec
       1 weak pair              ...     0.000 sec
       2 weak pairs             ...     0.000 sec
       3 weak pairs             ...     0.000 sec
  Extra time for extrapolation  ...     0.000 sec

Number of Triples   (0, 1, 2, 3 weak pairs; overall):     50       0       0       0  (    50)
Number of Atoms     (0, 1, 2, 3 weak pairs; overall):    6.0     0.0     0.0     0.0  (     6)
Number of PAOs      (0, 1, 2, 3 weak pairs; overall):   56.0     0.0     0.0     0.0  (    56)
Number of AuxFcns   (0, 1, 2, 3 weak pairs; overall):  304.0     0.0     0.0     0.0  (   352)
Number of TNOs      (0, 1, 2, 3 weak pairs         ):   46.8     0.0     0.0     0.0
Aver. Number of NTNO, Atoms, PAOs, AuxFcns / Triples:     50    46.8     6.0    56.0   304.0

Triples Correction (T)                     ...     -0.009919668
Final correlation energy (without F12)     ...     -0.315190597
Final correlation energy (with F12)        ...     -0.377881341
F12-E(CCSD)                                ...    -78.433965891
F12-E(CCSD(T))                             ...    -78.443885559



------------------------------------------------------------------------------- 
                                     TIMINGS                                   
------------------------------------------------------------------------------- 


Total execution time                   ...       29.054 sec

Localization of occupied MO's          ...        0.380 sec (  1.3%)
Fock Matrix Formation                  ...        0.367 sec (  1.3%)
Global overlap, Fock, MKN matrices     ...        0.240 sec (  0.8%)
Differential overlap integrals         ...        0.632 sec (  2.2%)
Organizing maps                        ...        0.007 sec (  0.0%)
RI 3-index integral generations        ...        0.799 sec (  2.7%)
RI-PNO integral transformation         ...        1.207 sec (  4.2%)
Initial Guess                          ...        1.554 sec (  5.3%)
DIIS Solver                            ...        0.769 sec (  2.6%)
State Vector Update                    ...        0.001 sec (  0.0%)
Sigma-vector construction              ...        8.484 sec ( 29.2%)
  <D|H|D>(0-ext)                       ...        0.650 sec (  7.7% of sigma)
  <D|H|D>(2-ext Fock)                  ...        0.001 sec (  0.0% of sigma)
  <D|H|D>(2-ext)                       ...        0.611 sec (  7.2% of sigma)
  <D|H|D>(4-ext)                       ...        0.373 sec (  4.4% of sigma)
  <D|H|D>(4-ext-corr)                  ...        0.874 sec ( 10.3% of sigma)
  CCSD doubles correction              ...        0.258 sec (  3.0% of sigma)
  <S|H|S>                              ...        1.326 sec ( 15.6% of sigma)
  <S|H|D>(1-ext)                       ...        0.074 sec (  0.9% of sigma)
  <S|H|D>(3-ext)                       ...        0.039 sec (  0.5% of sigma)
  Fock-dressing                        ...        1.493 sec ( 17.6% of sigma)
  Singles amplitudes                   ...        0.281 sec (  3.3% of sigma)
  (ik|jl)-dressing                     ...        0.772 sec (  9.1% of sigma)
  (ij|ab),(ia|jb)-dressing             ...        1.194 sec ( 14.1% of sigma)
  Pair energies                        ...        0.003 sec (  0.0% of sigma)
Total Time for computing F12           ...        9.223 sec ( 31.7% of ALL)
Total Time for computing (T)           ...        4.440 sec ( 15.3% of ALL)


Maximum memory used throughout the entire MDCI-calculation: 266.7 MB

-------------------------   --------------------
FINAL SINGLE POINT ENERGY       -78.443885558592
-------------------------   --------------------


                            ***************************************
                            *     ORCA property calculations      *
                            ***************************************


  WARNING: The energy has been calculated at the MDCI level but the densities
           used in the property calculations are still SCF densities
           MDCI response densities have not been calculated 
           use %mdci Density linearized end
           or  %mdci Density unrelaxed end
           or  %mdci Density orbopt end

                                    ---------------------
                                    Active property flags
                                    ---------------------
   (+) Dipole Moment


------------------------------------------------------------------------------
                       ORCA ELECTRIC PROPERTIES CALCULATION
------------------------------------------------------------------------------

Dipole Moment Calculation                       ... on
Quadrupole Moment Calculation                   ... off
Polarizability Calculation                      ... off
GBWName                                         ... c2h4_lw1x_Compound_1.gbw
Electron density                                ... c2h4_lw1x_Compound_1.scfp
The origin for moment calculation is the CENTER OF MASS  = ( 0.000000,  0.000000  0.000000)

-------------
DIPOLE MOMENT
-------------
                                X             Y             Z
Electronic contribution:      0.00000       0.00000      -0.00000
Nuclear contribution   :      0.00000       0.00000       0.00000
                        -----------------------------------------
Total Dipole Moment    :      0.00000       0.00000      -0.00000
                        -----------------------------------------
Magnitude (a.u.)       :      0.00000
Magnitude (Debye)      :      0.00000



--------------------
Rotational spectrum 
--------------------
 
Rotational constants in cm-1:     4.929580     1.011448     0.839251 
Rotational constants in MHz : 147785.094948 30322.437410 25160.105428 

 Dipole components along the rotational axes: 
x,y,z [a.u.] :    -0.000000     0.000000     0.000000 
x,y,z [Debye]:    -0.000000     0.000000     0.000000 

 

Timings for individual modules:

Sum of individual times         ...       42.286 sec (=   0.705 min)
GTO integral calculation        ...        2.560 sec (=   0.043 min)   6.1 %
SCF iterations                  ...       10.078 sec (=   0.168 min)  23.8 %
MDCI module                     ...       29.648 sec (=   0.494 min)  70.1 %


################################################################################


                                COMPOUND JOB  2 
Basename: c2h4_lw1x_Compound_2
NOTE: please remember that MaxCore and PAL settings will be ignored.

################################################################################

================================================================================
                                       INPUT FILE
================================================================================
NAME = c2h4_lw1x_Compound_2.inp
|  1>     ! DefGrid3 RIJCOSX TightPNO DLPNO-CCSD(T1)-F12 MiniPrint NoPop
|  2>     %Basis
|  3>       Basis "maug-cc-pV(T+d)Z"
|  4>       AuxJ  "AutoAux"
|  5>       AuxC  "AutoAux"
|  6>       CABS  "AutoAux"
|  7>     End
|  8> 
|  9>                          ****END OF INPUT****
================================================================================
Warning! AutoAux has not been tested for CABS - use at your own risk!
================================================================================

----- Orbital basis set information -----
Your calculation utilizes the basis: may-cc-pV(T+d)Z 
  E. Papajak, D. G. Truhlar, J. Chem. Theory Comput. 7, 10-18 (2011).

----- AuxJ basis set information -----
Your calculation utilizes the AutoAux generation procedure.
  G. L. Stoychev, A. A. Auer, F. Neese, J. Chem. Theory Comput. 13, 554 (2017)

----- AuxC basis set information -----
Your calculation utilizes the AutoAux generation procedure.
  G. L. Stoychev, A. A. Auer, F. Neese, J. Chem. Theory Comput. 13, 554 (2017)

----- CABS information -----
Your calculation utilizes the AutoAux generation procedure.
  G. L. Stoychev, A. A. Auer, F. Neese, J. Chem. Theory Comput. 13, 554 (2017)


                    <<< The CABS basis set will be decontracted >>>

================================================================================
                                        WARNINGS
                       Please study these warnings very carefully!
================================================================================


WARNING: Post HF methods need fully converged wavefunctions
  ===> : Setting SCFConvForced true
         You can overwrite this default with %scf ConvForced false 


WARNING: MDCI localization with Augmented Hessian Foster-Boys
  ===> : Switching off randomization!

INFO   : the flag for use of the SHARK integral package has been found!


                       ****************************
                       * Single Point Calculation *
                       ****************************

---------------------------------
CARTESIAN COORDINATES (ANGSTROEM)
---------------------------------
  C      0.000000    0.000000    0.662598
  H      0.000000    0.920944    1.232046
  H     -0.000000   -0.920944    1.232046
  C      0.000000    0.000000   -0.662598
  H     -0.000000   -0.920944   -1.232046
  H      0.000000    0.920944   -1.232046

----------------------------
CARTESIAN COORDINATES (A.U.)
----------------------------
  NO LB      ZA    FRAG     MASS         X           Y           Z
   0 C     6.0000    0    12.011    0.000000    0.000000    1.252129
   1 H     1.0000    0     1.008    0.000000    1.740332    2.328230
   2 H     1.0000    0     1.008   -0.000000   -1.740332    2.328230
   3 C     6.0000    0    12.011    0.000000    0.000000   -1.252129
   4 H     1.0000    0     1.008   -0.000000   -1.740332   -2.328230
   5 H     1.0000    0     1.008    0.000000    1.740332   -2.328230



           ************************************************************
           *        Program running with 5 parallel MPI-processes     *
           *              working on a common directory               *
           ************************************************************
------------------------------------------------------------------------------
                   ___                                                        
                  /   \      - P O W E R E D   B Y -                         
                 /     \                                                     
                 |  |  |   _    _      __       _____    __    __             
                 |  |  |  | |  | |    /  \     |  _  \  |  |  /  |          
                  \  \/   | |  | |   /    \    | | | |  |  | /  /          
                 / \  \   | |__| |  /  /\  \   | |_| |  |  |/  /          
                |  |  |   |  __  | /  /__\  \  |    /   |      \           
                |  |  |   | |  | | |   __   |  |    \   |  |\   \          
                \     /   | |  | | |  |  |  |  | |\  \  |  | \   \       
                 \___/    |_|  |_| |__|  |__|  |_| \__\ |__|  \__/        
                                                                              
                      - O R C A' S   B I G   F R I E N D -                    
                                      &                                       
                       - I N T E G R A L  F E E D E R -                       
                                                                              
 v1 FN, 2020, v2 2021                                                         
------------------------------------------------------------------------------


Reading SHARK input file c2h4_lw1x_Compound_2.SHARKINP.tmp ... ok
----------------------
SHARK INTEGRAL PACKAGE
----------------------

Number of atoms                             ...      6
Number of basis functions                   ...    124
Number of shells                            ...     48
Maximum angular momentum                    ...      3
Integral batch strategy                     ... SHARK/LIBINT Hybrid
RI-J (if used) integral strategy            ... SPLIT-RIJ (Revised 2003 algorithm where possible)
Printlevel                                  ...      1
Contraction scheme used                     ... SEGMENTED contraction
Coulomb Range Separation                    ... NOT USED
Exchange Range Separation                   ... NOT USED
Finite Nucleus Model                        ... NOT USED
Auxiliary Coulomb fitting basis             ... AVAILABLE
   # of basis functions in Aux-J            ...    576
   # of shells in Aux-J                     ...    180
   Maximum angular momentum in Aux-J        ...      4
Auxiliary J/K fitting basis                 ... NOT available
Auxiliary Correlation fitting basis         ... AVAILABLE
   # of basis functions in Aux-C            ...    576
   # of shells in Aux-C                     ...    180
   Maximum angular momentum in Aux-C        ...      4
Auxiliary 'external' fitting basis          ... NOT available
Integral threshold                          ...     1.000000e-10
Primitive cut-off                           ...     1.000000e-11
Primitive pair pre-selection threshold      ...     1.000000e-11

Calculating pre-screening integrals         ... done (  0.1 sec) Dimension = 48
Organizing shell pair data                  ... done (  0.0 sec)
Shell pair information
Total number of shell pairs                 ...      1176
Shell pairs after pre-screening             ...      1176
Total number of primitive shell pairs       ...      4046
Primitive shell pairs kept                  ...      3646
          la=0 lb=0:    253 shell pairs
          la=1 lb=0:    352 shell pairs
          la=1 lb=1:    136 shell pairs
          la=2 lb=0:    176 shell pairs
          la=2 lb=1:    128 shell pairs
          la=2 lb=2:     36 shell pairs
          la=3 lb=0:     44 shell pairs
          la=3 lb=1:     32 shell pairs
          la=3 lb=2:     16 shell pairs
          la=3 lb=3:      3 shell pairs

Calculating one electron integrals          ... done (  0.0 sec)
Calculating RI/J V-Matrix + Cholesky decomp.... done (  0.0 sec)
Calculating RI/C V-Matrix + Cholesky decomp.... done (  0.0 sec)
Calculating Nuclear repulsion               ... done (  0.0 sec) ENN=     33.481732371417 Eh

SHARK setup successfully completed in   0.2 seconds

Maximum memory used throughout the entire GTOINT-calculation: 17.6 MB


           ************************************************************
           *        Program running with 5 parallel MPI-processes     *
           *              working on a common directory               *
           ************************************************************

Diagonalization of the overlap matrix:
Smallest eigenvalue                        ... 3.944e-04
Time for diagonalization                   ...    0.005 sec
Threshold for overlap eigenvalues          ... 1.000e-08
Number of eigenvalues below threshold      ... 0
Time for construction of square roots      ...    0.004 sec
Total time needed                          ...    0.010 sec

Atom 0: N(Shells)= 12 and 8 - projection required
--------------------
COSX GRID GENERATION
--------------------

GRIDX 1
-------
General Integration Accuracy     IntAcc      ... 4.020
Radial Grid Type                 RadialGrid  ... OptM3 with GC (2021)
Angular Grid (max. ang.)         AngularGrid ... 2 (Lebedev-110)
Angular grid pruning method      GridPruning ... 4 (adaptive)
Weight generation scheme         WeightScheme... Becke
Basis function cutoff            BFCut       ... 1.0000e-10
Integration weight cutoff        WCut        ... 1.0000e-14
Angular grids for H and He will be reduced by one unit
Partially contracted basis set               ... on
Rotationally invariant grid construction     ... off

Total number of grid points                  ...     7652
Total number of batches                      ...      122
Average number of points per batch           ...       62
Average number of grid points per atom       ...     1275
UseSFitting                                  ... on

GRIDX 2
-------
General Integration Accuracy     IntAcc      ... 4.338
Radial Grid Type                 RadialGrid  ... OptM3 with GC (2021)
Angular Grid (max. ang.)         AngularGrid ... 3 (Lebedev-194)
Angular grid pruning method      GridPruning ... 4 (adaptive)
Weight generation scheme         WeightScheme... Becke
[...]
   2   2.0000      -1.035109       -28.1668 
   3   2.0000      -0.791696       -21.5431 
   4   2.0000      -0.642087       -17.4721 
   5   2.0000      -0.588883       -16.0243 
   6   2.0000      -0.504506       -13.7283 
   7   2.0000      -0.378143       -10.2898 
   8   0.0000       0.153493         4.1768 
   9   0.0000       0.159172         4.3313 
  10   0.0000       0.186330         5.0703 
  11   0.0000       0.190771         5.1912 
  12   0.0000       0.241521         6.5721 
  13   0.0000       0.366847         9.9824 
  14   0.0000       0.368073        10.0158 
  15   0.0000       0.439675        11.9642 
  16   0.0000       0.442304        12.0357 
  17   0.0000       0.480541        13.0762 
  18   0.0000       0.563750        15.3404 
  19   0.0000       0.589535        16.0421 
  20   0.0000       0.593620        16.1532 
  21   0.0000       0.634479        17.2651 
  22   0.0000       0.635727        17.2990 
  23   0.0000       0.677516        18.4361 
  24   0.0000       0.694898        18.9091 
  25   0.0000       0.792987        21.5783 
  26   0.0000       0.829664        22.5763 
  27   0.0000       0.851113        23.1599 
  28   0.0000       0.875223        23.8160 
  29   0.0000       0.986787        26.8518 
  30   0.0000       1.085051        29.5257 
  31   0.0000       1.098259        29.8851 
  32   0.0000       1.181175        32.1414 
  33   0.0000       1.182000        32.1639 
  34   0.0000       1.218648        33.1611 
  35   0.0000       1.231059        33.4988 
  36   0.0000       1.297746        35.3135 
  37   0.0000       1.318806        35.8865 
  38   0.0000       1.377351        37.4796 
  39   0.0000       1.459832        39.7241 
  40   0.0000       1.460176        39.7334 
  41   0.0000       1.548741        42.1434 
  42   0.0000       1.581818        43.0435 
  43   0.0000       1.593259        43.3548 
  44   0.0000       1.610853        43.8335 
  45   0.0000       1.611097        43.8402 
  46   0.0000       1.614190        43.9244 
  47   0.0000       1.881355        51.1943 
  48   0.0000       2.228092        60.6295 
  49   0.0000       2.270451        61.7821 
  50   0.0000       2.408519        65.5391 
  51   0.0000       2.512537        68.3696 
  52   0.0000       2.550402        69.4000 
  53   0.0000       2.563665        69.7609 
  54   0.0000       2.628607        71.5280 
  55   0.0000       2.740936        74.5847 
  56   0.0000       2.860135        77.8282 
  57   0.0000       2.945825        80.1600 
  58   0.0000       2.966671        80.7272 
  59   0.0000       3.029183        82.4283 
  60   0.0000       3.092812        84.1597 
  61   0.0000       3.093853        84.1880 
  62   0.0000       3.105630        84.5085 
  63   0.0000       3.116260        84.7977 
  64   0.0000       3.142146        85.5021 
  65   0.0000       3.158041        85.9347 
  66   0.0000       3.180617        86.5490 
  67   0.0000       3.201114        87.1067 
  68   0.0000       3.348880        91.1277 
  69   0.0000       3.353285        91.2475 
  70   0.0000       3.377163        91.8973 
  71   0.0000       3.412549        92.8602 
  72   0.0000       3.433910        93.4414 
  73   0.0000       3.494830        95.0991 
  74   0.0000       3.522327        95.8474 
  75   0.0000       3.612162        98.2919 
  76   0.0000       3.634241        98.8927 
  77   0.0000       3.703439       100.7757 
  78   0.0000       3.730216       101.5043 
  79   0.0000       3.782221       102.9195 
  80   0.0000       3.919896       106.6658 
  81   0.0000       3.955746       107.6413 
  82   0.0000       4.011305       109.1532 
  83   0.0000       4.012798       109.1938 
  84   0.0000       4.020287       109.3976 
  85   0.0000       4.021710       109.4363 
  86   0.0000       4.130186       112.3881 
  87   0.0000       4.187769       113.9550 
  88   0.0000       4.220313       114.8406 
  89   0.0000       4.295549       116.8878 
  90   0.0000       4.312764       117.3563 
  91   0.0000       4.331474       117.8654 
  92   0.0000       4.359566       118.6298 
  93   0.0000       4.448534       121.0508 
  94   0.0000       4.460869       121.3864 
  95   0.0000       4.555929       123.9731 
  96   0.0000       4.625439       125.8646 
  97   0.0000       4.842515       131.7715 
  98   0.0000       4.898715       133.3008 
  99   0.0000       4.946126       134.5909 
 100   0.0000       5.003307       136.1469 
 101   0.0000       5.038606       137.1075 
 102   0.0000       5.220995       142.0705 
 103   0.0000       5.315762       144.6492 
 104   0.0000       5.386868       146.5841 
 105   0.0000       5.414911       147.3472 
 106   0.0000       5.504990       149.7984 
 107   0.0000       5.514552       150.0586 
 108   0.0000       5.525223       150.3490 
 109   0.0000       5.678675       154.5246 
 110   0.0000       5.747312       156.3923 
 111   0.0000       6.164377       167.7412 
 112   0.0000       6.244829       169.9304 
 113   0.0000       6.340508       172.5340 
 114   0.0000       6.703983       182.4246 
 115   0.0000       6.832748       185.9285 
 116   0.0000      10.425542       283.6934 
 117   0.0000      10.540837       286.8308 
 118   0.0000      11.564777       314.6936 
 119   0.0000      11.606964       315.8416 
 120   0.0000      11.647120       316.9343 
 121   0.0000      11.742119       319.5193 
 122   0.0000      13.036632       354.7448 
 123   0.0000      13.631856       370.9417 
 124   0.0000      14.717059       400.4715 
 125   0.0000      14.964581       407.2070 
 126   0.0000      15.006003       408.3341 
 127   0.0000      15.019561       408.7030 
 128   0.0000      15.314896       416.7395 
 129   0.0000      15.444677       420.2710 
 130   0.0000      15.455378       420.5622 
 131   0.0000      15.535389       422.7394 
 132   0.0000      16.022100       435.9835 
 133   0.0000      16.668269       453.5666 
 134   0.0000      50.238356      1367.0552 
 135   0.0000      50.332458      1369.6158 
 136   0.0000      51.027534      1388.5298 
 137   0.0000      51.075821      1389.8438 
 138   0.0000      51.090148      1390.2336 
 139   0.0000      51.245393      1394.4580 
 140   0.0000      62.195609      1692.4286 
 141   0.0000      62.977899      1713.7158 
Total SCF time: 0 days 0 hours 0 min 3 sec 

Maximum memory used throughout the entire SCF-calculation: 63.2 MB


           ************************************************************
           *        Program running with 5 parallel MPI-processes     *
           *              working on a common directory               *
           ************************************************************

------------------------------------------------------------------------------
                                ORCA  MP2 
------------------------------------------------------------------------------

Freezing NCore=0 chemical core electrons
Initializing SHARK ... done


------------------------------------------------------------------------------
                           ORCA ORBITAL LOCALIZATION
------------------------------------------------------------------------------

Input orbitals are from                  ... c2h4_lw1x_Compound_4.gbw
Output orbitals are to                   ... c2h4_lw1x_Compound_4.loc
Max. number of iterations                ... 128
Localizations seeded randomly            ... off
Convergence tolerance                    ... 1.000e-06
Treshold for strong local MOs            ... 9.500e-01
Treshold for bond MOs                    ... 8.500e-01
Operator                                 ... 0
Orbital range for localization           ... 0 to 7
Localization criterion                   ... FOSTER-BOYS (AUGMENTED HESSIAN)
Doing the dipole integrals     ... o.k.
Initial value of the localization sum :    12.317168
ITERATION   0 : L=   23.8182243316 DL=  1.15e+01 (AVERGE_DL)=    0.6408993794 
ITERATION   1 : L=   25.2525867690 DL=  1.43e+00 (AVERGE_DL)=    0.2263343321 
ITERATION   2 : L=   25.2663071170 DL=  1.37e-02 (AVERGE_DL)=    0.0221362244 
ITERATION   3 : L=   25.2663271476 DL=  2.00e-05 (AVERGE_DL)=    0.0008458019 
ITERATION   4 : L=   25.2663271516 DL=  3.93e-09 (AVERGE_DL)=    0.0000118506 
LOCALIZATION SUM CONVERGED

------------------------------------------------------
AUGMENTED HESSIAN OPTIMIZATION OF FOSTER-BOYS ORBITALS
------------------------------------------------------

Spin operator:           0
Orbital window:          0 to 7
Number of iterations:    128
Gradient tolerance:      1.000e-06
Number of pairs:         28
Davidson threshold:      2000
Diagonalization method:  LAPACK
Iter:    0   L: 25.2663271516   Grad. norm: 7.665073e-05
   *** Likely close to a maximum now. ***
       Augmented Hessian eigenvalues:  1.94e-10 -5.49e+00 -6.81e+00 -6.81e+00 ... 
Iter:    1   L: 25.2663271517   Grad. norm: 1.613149e-11
LOCALIZATION HAS CONVERGED.

Eigenvalues of the Hessian:
  0 -5.491e+00
  1 -6.815e+00
  2 -6.815e+00
  3 -7.134e+00
  4 -7.134e+00
  5 -7.770e+00
  6 -7.771e+00
  7 -9.223e+00
  8 -9.223e+00
  9 -1.816e+01
    ...


------------------------------------------------------------------------------- 
                    LOCALIZED MOLECULAR ORBITAL COMPOSITIONS                   
------------------------------------------------------------------------------- 

The Mulliken populations for each LMO on each atom are computed
The LMO`s will be ordered according to atom index and type
  (A) Strongly localized MO`s have populations of >=0.950 on one atom
  (B) Two center bond orbitals have populations of >=0.850 on two atoms
  (C) Other MO`s are considered to be `delocalized`

FOUND  -   2 strongly local MO`s
       -   6 two center bond MO`s
       -   0 significantly delocalized MO`s

Rather strongly localized orbitals:
MO   1:   3C  -   1.002407
MO   0:   0C  -   1.002407
Bond-like localized orbitals:
MO   7:   5H  -   0.464157  and   3C  -   0.551647
MO   6:   4H  -   0.464156  and   3C  -   0.551648
MO   5:   3C  -   0.501222  and   0C  -   0.501223
MO   4:   3C  -   0.501222  and   0C  -   0.501223
MO   3:   2H  -   0.464156  and   0C  -   0.551648
MO   2:   1H  -   0.464156  and   0C  -   0.551648
Localized MO's were stored in: c2h4_lw1x_Compound_4.loc



Calculating differential overlap integrals ... ok
Threshold for domain construction in prescreening: TCutDOPre = 3.0e-02

--------------------------
ELECTRON PAIR PRESCREENING
--------------------------

Dipole-based pair screening          .... used

   TCutDOij = 1.000000e-05
   TCutPre  = 1.000000e-06
   .... Finished loop over pairs
Total time spent in the prescreening                  ...     0.005 sec
sum of pair energies estimated for screened out pairs ...       0.000000000000 Eh

---------------------------
MAP CONSTRUCTION THRESHOLDS
---------------------------
    TCutMKN     ...     1.0e-03
    TCutDO      ...     5.0e-03
    TCutC(MO)   ...     1.0e-03
    TCutC(PAO)  ...     1.0e-03

--------------------------------
LOCAL RI TRANSFORMATION (IAVPAO)
--------------------------------

Orbital window:       0 to 7
Number of PAOs:     142
Basis functions:    142 (54 shells)
Aux. functions:     658 (190 shells)
Use SHARK:           on

Processing maps (0.0 sec)
Average map sizes:
   Aux shells -> MOs               8.0
   Aux shells -> PAOs            142.0
   MOs        -> AO shells        51.0
   PAOs       -> AO shells        54.0

Calculating integrals (0.2 sec, 5.710 MB)
Sorting integrals (0.0 sec, 5.703 MB)
Total time for the integral transformation: 0.2 sec

----------------------------
Local MP2 Energy Calculation
----------------------------
Number of orbital pairs included:     36
Truncation parameters:
    PAOOverlapThresh    =        1.000e-08
    TCutPNO             =        1.000e-09

Spin component scaling                      .... not used
MP2 energy scaling factor                   .... 1.000

Formation of semicanonical amplitudes.
 10% done.
 20% done.
 30% done.
 40% done.
 50% done.
 60% done.
 70% done.
 80% done.
 90% done.
100% done.

Finished the LMP2 guess in 0.4 sec.

Average number of PAOs per pair        142.0
Average number of nrPAOs per pair      134.0
Average number of PNOs per pair         84.1
Average number of AUX  per pair        600.2

Semicanonical MP2 energy:                   -0.419007505837 Eh
Semicanonical MP2 energy in PNO basis:      -0.419002614778 Eh

Initial amplitudes guess done. Entering DLPNO-MP2 iteration loop:
   Max. no of iterations          ...  100
   Energy convergence tolerance   ...    1.0e-06 Eh
   Residual convergence tolerance ...    5.0e-06
   Fock matrix cutoff             ...    1.0e-05 Eh
   Max # vectors in DIIS          ...  7
   Start iteration of DIIS        ...  0
   Levelshift                     ...  2.000e-01 Eh
   Damping before turning on DIIS ...  5.000e-01
   Damping after turning on DIIS  ...  0.000e+00

                           *** Turning on DIIS ***
Iter=   0:  ECORR= -0.425323764599  DE=   6.3e-03 RMAX=   1.7e-02
Iter=   1:  ECORR= -0.430294452549  DE=   5.0e-03 RMAX=   7.6e-03
Iter=   2:  ECORR= -0.431379450209  DE=   1.1e-03 RMAX=   3.3e-03
Iter=   3:  ECORR= -0.431633820083  DE=   2.5e-04 RMAX=   1.1e-03
Iter=   4:  ECORR= -0.431633983549  DE=   1.6e-07 RMAX=   2.6e-04
Iter=   5:  ECORR= -0.431629752850  DE=   4.2e-06 RMAX=   5.7e-05
Iter=   6:  ECORR= -0.431629108254  DE=   6.4e-07 RMAX=   7.6e-06
Iter=   7:  ECORR= -0.431629227695  DE=   1.2e-07 RMAX=   1.0e-06 => CONVERGED

Finished the DLPNO-MP2 iterations in 3.4 sec.

LMP2 correlation energy (all non-screened pairs)      ...     -0.431629227695 Eh
Semicanonical PNO correction to energy                ...     -0.000004891059 Eh
Sum of pair energies estimated for screened out pairs ...      0.000000000000 Eh
                                                         -----------------------
Total:                                                ...     -0.431634118754 Eh

------------------------------------------------------
 DLPNO-MP2 CORRELATION ENERGY:      -0.431634118754 Eh
------------------------------------------------------

TIMINGS FOR DLPNO-MP2:
Localization                             ...        0.217 sec
Differential overlap integrals           ...        0.694 sec
Prescreening                             ...        0.142 sec
Map setup                                ...        0.001 sec
(ia|v) trafo                             ...        0.248 sec
Semicanonical amplitudes                 ...        0.207 sec
PNO construction                         ...        0.035 sec
DLPNO-MP2 iterations                     ...        3.380 sec
                                             ----------------
Total time                                          6.317 sec


---------------------------------------
MP2 TOTAL ENERGY:      -78.524431984 Eh
---------------------------------------

Maximum memory used throughout the entire MP2-calculation: 109.7 MB

-------------------------   --------------------
FINAL SINGLE POINT ENERGY       -78.524431983935
-------------------------   --------------------


                            ***************************************
                            *     ORCA property calculations      *
                            ***************************************


  WARNING: The energy has been calculated at the MP2 level but the densities
           used in the property calculations are still SCF densities
           MP2 response densities have not been calculated 
           use %mp2 Density relaxed end
           or  %mp2 Density unrelaxed end

                                    ---------------------
                                    Active property flags
                                    ---------------------
   (+) Dipole Moment


------------------------------------------------------------------------------
                       ORCA ELECTRIC PROPERTIES CALCULATION
------------------------------------------------------------------------------

Dipole Moment Calculation                       ... on
Quadrupole Moment Calculation                   ... off
Polarizability Calculation                      ... off
GBWName                                         ... c2h4_lw1x_Compound_4.gbw
Electron density                                ... c2h4_lw1x_Compound_4.scfp
The origin for moment calculation is the CENTER OF MASS  = ( 0.000000,  0.000000  0.000000)

-------------
DIPOLE MOMENT
-------------
                                X             Y             Z
Electronic contribution:      0.00000      -0.00000      -0.00000
Nuclear contribution   :      0.00000       0.00000       0.00000
                        -----------------------------------------
Total Dipole Moment    :      0.00000      -0.00000      -0.00000
                        -----------------------------------------
Magnitude (a.u.)       :      0.00000
Magnitude (Debye)      :      0.00000



--------------------
Rotational spectrum 
--------------------
 
Rotational constants in cm-1:     4.929580     1.011448     0.839251 
Rotational constants in MHz : 147785.094948 30322.437410 25160.105428 

 Dipole components along the rotational axes: 
x,y,z [a.u.] :    -0.000000    -0.000000     0.000000 
x,y,z [Debye]:    -0.000000    -0.000000     0.000000 

 

Timings for individual modules:

Sum of individual times         ...       13.502 sec (=   0.225 min)
GTO integral calculation        ...        0.651 sec (=   0.011 min)   4.8 %
Relativistic integrals          ...        0.752 sec (=   0.013 min)   5.6 %
SCF iterations                  ...        4.006 sec (=   0.067 min)  29.7 %
MP2 module                      ...        8.093 sec (=   0.135 min)  59.9 %
================================================================================

----- Orbital basis set information -----
Your calculation utilizes the basis: def2-SVP
   F. Weigend and R. Ahlrichs, Phys. Chem. Chem. Phys. 7, 3297 (2005).



----------------------------------------------------------------------------------------------
                                        COMPOUND BLOCK                                        
                                     SUMMARY OF VARIABLES                                     
----------------------------------------------------------------------------------------------

Variable Name                                           Value             Evaluation String
-------------                                           -----             -----------------
HF_DZ                                    |             -78.06600422    |  
EC_DZ                                    |              -0.37788134    |  
CC_DZ                                    |              -0.36796167    |  EC_DZ-T_DZ
T_DZ                                     |              -0.00991967    |  
HF_TZ                                    |             -78.06924427    |  
EC_TZ                                    |              -0.39504400    |  
CC_TZ                                    |              -0.38013181    |  EC_TZ-T_TZ
T_TZ                                     |              -0.01491219    |  
HF_CBS                                   |             -78.06973565    |  HF_TZ-(HF_TZ-HF_DZ)*3^-5/(3^-5-2^-5)
CC_CBS                                   |              -0.38221740    |  CC_TZ-(CC_TZ-CC_DZ)*3^-4.7405/(3^-4.7405-2^-4.7405)
T_CBS                                    |              -0.01866135    |  T_TZ-(T_TZ-T_DZ)*3^-2.0879/(3^-2.0879-2^-2.0879)
MP_FC                                    |             -78.40417116    |  
MP_FU                                    |             -78.52443198    |  
MP_CV                                    |              -0.12026083    |  MP_FU-MP_FC
LW1X                                     |             -78.59087522    |  HF_CBS+CC_CBS+T_CBS+MP_CV
                             ****ORCA TERMINATED NORMALLY****
TOTAL RUN TIME: 0 days 0 hours 3 minutes 10 seconds 702 msec
