
                                 *****************
                                 * O   R   C   A *
                                 *****************

                                            #,                                       
                                            ###                                      
                                            ####                                     
                                            #####                                    
                                            ######                                   
                                           ########,                                 
                                     ,,################,,,,,                         
                               ,,#################################,,                 
                          ,,##########################################,,             
                       ,#########################################, ''#####,          
                    ,#############################################,,   '####,        
                  ,##################################################,,,,####,       
                ,###########''''           ''''###############################       
              ,#####''   ,,,,##########,,,,          '''####'''          '####       
            ,##' ,,,,###########################,,,                        '##       
           ' ,,###''''                  '''############,,,                           
         ,,##''                                '''############,,,,        ,,,,,,###''
      ,#''                                            '''#######################'''  
     '                                                          ''''####''''         
             ,#######,   #######,   ,#######,      ##                                
            ,#'     '#,  ##    ##  ,#'     '#,    #''#        ######   ,####,        
            ##       ##  ##   ,#'  ##            #'  '#       #        #'  '#        
            ##       ##  #######   ##           ,######,      #####,   #    #        
            '#,     ,#'  ##    ##  '#,     ,#' ,#      #,         ##   #,  ,#        
             '#######'   ##     ##  '#######'  #'      '#     #####' # '####'        



                  #######################################################
                  #                        -***-                        #
                  #          Department of theory and spectroscopy      #
                  #    Directorship and core code : Frank Neese         #
                  #        Max Planck Institute fuer Kohlenforschung    #
                  #                Kaiser Wilhelm Platz 1               #
                  #                 D-45470 Muelheim/Ruhr               #
                  #                      Germany                        #
                  #                                                     #
                  #                  All rights reserved                #
                  #                        -***-                        #
                  #######################################################


                         Program Version 5.0.1 -  RELEASE  -


 With contributions from (in alphabetic order):
   Daniel Aravena         : Magnetic Suceptibility
   Michael Atanasov       : Ab Initio Ligand Field Theory (pilot matlab implementation)
   Alexander A. Auer      : GIAO ZORA, VPT2 properties, NMR spectrum
   Ute Becker             : Parallelization
   Giovanni Bistoni       : ED, misc. LED, open-shell LED, HFLD
   Martin Brehm           : Molecular dynamics
   Dmytro Bykov           : SCF Hessian
   Vijay G. Chilkuri      : MRCI spin determinant printing, contributions to CSF-ICE
   Dipayan Datta          : RHF DLPNO-CCSD density
   Achintya Kumar Dutta   : EOM-CC, STEOM-CC
   Dmitry Ganyushin       : Spin-Orbit,Spin-Spin,Magnetic field MRCI
   Miquel Garcia          : C-PCM and meta-GGA Hessian, CC/C-PCM, Gaussian charge scheme
   Yang Guo               : DLPNO-NEVPT2, F12-NEVPT2, CIM, IAO-localization
   Andreas Hansen         : Spin unrestricted coupled pair/coupled cluster methods
   Benjamin Helmich-Paris : MC-RPA, TRAH-SCF, COSX integrals
   Lee Huntington         : MR-EOM, pCC
   Robert Izsak           : Overlap fitted RIJCOSX, COSX-SCS-MP3, EOM
   Marcus Kettner         : VPT2
   Christian Kollmar      : KDIIS, OOCD, Brueckner-CCSD(T), CCSD density, CASPT2, CASPT2-K
   Simone Kossmann        : Meta GGA functionals, TD-DFT gradient, OOMP2, MP2 Hessian
   Martin Krupicka        : Initial AUTO-CI
   Lucas Lang             : DCDCAS
   Marvin Lechner         : AUTO-CI (C++ implementation), FIC-MRCC
   Dagmar Lenk            : GEPOL surface, SMD
   Dimitrios Liakos       : Extrapolation schemes; Compound Job, initial MDCI parallelization
   Dimitrios Manganas     : Further ROCIS development; embedding schemes
   Dimitrios Pantazis     : SARC Basis sets
   Anastasios Papadopoulos: AUTO-CI, single reference methods and gradients
   Taras Petrenko         : DFT Hessian,TD-DFT gradient, ASA, ECA, R-Raman, ABS, FL, XAS/XES, NRVS
   Peter Pinski           : DLPNO-MP2, DLPNO-MP2 Gradient
   Christoph Reimann      : Effective Core Potentials
   Marius Retegan         : Local ZFS, SOC
   Christoph Riplinger    : Optimizer, TS searches, QM/MM, DLPNO-CCSD(T), (RO)-DLPNO pert. Triples
   Tobias Risthaus        : Range-separated hybrids, TD-DFT gradient, RPA, STAB
   Michael Roemelt        : Original ROCIS implementation
   Masaaki Saitow         : Open-shell DLPNO-CCSD energy and density
   Barbara Sandhoefer     : DKH picture change effects
   Avijit Sen             : IP-ROCIS
   Kantharuban Sivalingam : CASSCF convergence, NEVPT2, FIC-MRCI
   Bernardo de Souza      : ESD, SOC TD-DFT
   Georgi Stoychev        : AutoAux, RI-MP2 NMR, DLPNO-MP2 response
   Willem Van den Heuvel  : Paramagnetic NMR
   Boris Wezisla          : Elementary symmetry handling
   Frank Wennmohs         : Technical directorship


 We gratefully acknowledge several colleagues who have allowed us to
 interface, adapt or use parts of their codes:
   Stefan Grimme, W. Hujo, H. Kruse, P. Pracht,  : VdW corrections, initial TS optimization,
                  C. Bannwarth, S. Ehlert          DFT functionals, gCP, sTDA/sTD-DF
   Ed Valeev, F. Pavosevic, A. Kumar             : LibInt (2-el integral package), F12 methods
   Garnet Chan, S. Sharma, J. Yang, R. Olivares  : DMRG
   Ulf Ekstrom                                   : XCFun DFT Library
   Mihaly Kallay                                 : mrcc  (arbitrary order and MRCC methods)
   Jiri Pittner, Ondrej Demel                    : Mk-CCSD
   Frank Weinhold                                : gennbo (NPA and NBO analysis)
   Christopher J. Cramer and Donald G. Truhlar   : smd solvation model
   Lars Goerigk                                  : TD-DFT with DH, B97 family of functionals
   V. Asgeirsson, H. Jonsson                     : NEB implementation
   FAccTs GmbH                                   : IRC, NEB, NEB-TS, DLPNO-Multilevel, CI-OPT
                                                   MM, QMMM, 2- and 3-layer-ONIOM, Crystal-QMMM,
                                                   LR-CPCM, SF, NACMEs, symmetry and pop. for TD-DFT,
                                                   nearIR, NL-DFT gradient (VV10), updates on ESD,
                                                   ML-optimized integration grids
   S Lehtola, MJT Oliveira, MAL Marques          : LibXC Library
   Liviu Ungur et al                             : ANISO software


 Your calculation uses the libint2 library for the computation of 2-el integrals
 For citations please refer to: http://libint.valeyev.net

 Your ORCA version has been built with support for libXC version: 5.1.0
 For citations please refer to: https://tddft.org/programs/libxc/

 This ORCA versions uses:
   CBLAS   interface :  Fast vector & matrix operations
   LAPACKE interface :  Fast linear algebra routines
   SCALAPACK package :  Parallel linear algebra routines
   Shared memory     :  Shared parallel matrices
   BLAS/LAPACK       :  OpenBLAS 0.3.15  USE64BITINT DYNAMIC_ARCH NO_AFFINITY SkylakeX SINGLE_THREADED
        Core in use  :  SkylakeX
   Copyright (c) 2011-2014, The OpenBLAS Project




################################################################################


                                COMPOUND JOB MainJOB 
Basename: chrysene-lw1x-no-diffuse-on-c_Compound_0

################################################################################

================================================================================
                                       INPUT FILE
================================================================================
NAME = chrysene-lw1x-no-diffuse-on-c_Compound_0.inp
|  1> %Maxcore 8000
|  2>  %Pal nprocs 10 End
|  3>  
|  4>  * xyz 0 1
|  5>  C        2.433561    0.718355    0.000000 
|  6>  C        1.253087    1.388888    0.000000 
|  7>  C        0.000871    0.705905    0.000000 
|  8>  C       -0.000871   -0.705905    0.000000 
|  9>  C        1.253087   -1.429844    0.000000 
| 10>  C        2.475256   -0.702900    0.000000 
| 11>  C       -1.253087    1.429844    0.000000 
| 12>  C       -1.253087   -1.388888    0.000000 
| 13>  C       -2.433561   -0.718355    0.000000 
| 14>  C       -2.475256    0.702900    0.000000 
| 15>  C       -3.705461    1.394656    0.000000 
| 16>  H       -4.623137    0.820005    0.000000 
| 17>  C       -3.745186    2.766713    0.000000 
| 18>  C       -2.543059    3.493216    0.000000 
| 19>  C       -1.332210    2.840958    0.000000 
| 20>  H        1.273534    2.467518    0.000000 
| 21>  H       -1.273534   -2.467518    0.000000 
| 22>  H       -4.693136    3.287431    0.000000 
| 23>  H       -2.568507    4.574669    0.000000 
| 24>  H       -0.431147    3.434756    0.000000 
| 25>  C        3.705461   -1.394656    0.000000 
| 26>  H        4.623137   -0.820005    0.000000 
| 27>  C        1.332210   -2.840958    0.000000 
| 28>  H        0.431147   -3.434756    0.000000 
| 29>  C        3.745186   -2.766713    0.000000 
| 30>  C        2.543059   -3.493216    0.000000 
| 31>  H        4.693136   -3.287431    0.000000 
| 32>  H        2.568507   -4.574669    0.000000 
| 33>  H        3.368325    1.264575    0.000000 
| 34>  H       -3.368325   -1.264575    0.000000 
| 35>  *
| 36>  
| 37> 
| 38>                          ****END OF INPUT****
================================================================================
================================================================================

----- Orbital basis set information -----
Your calculation utilizes the basis: def2-SVP
   F. Weigend and R. Ahlrichs, Phys. Chem. Chem. Phys. 7, 3297 (2005).



################################################################################


                                COMPOUND JOB  1 
Basename: chrysene-lw1x-no-diffuse-on-c_Compound_1
NOTE: please remember that MaxCore and PAL settings will be ignored.

################################################################################

================================================================================
                                       INPUT FILE
================================================================================
NAME = chrysene-lw1x-no-diffuse-on-c_Compound_1.inp
|  1>     ! DefGrid3 RIJCOSX TightPNO DLPNO-CCSD(T1)-F12 MiniPrint NoPop
|  2>     %Basis
|  3>       Basis        "maug-cc-pV(D+d)Z"
|  4>       AuxJ         "AutoAux"
|  5>       AuxC         "AutoAux"
|  6>       CABS         "AutoAux"
|  7>       NewGTO     C "cc-pVDZ" End
|  8>       NewAuxjGTO C "AutoAux" End
|  9>       NewAuxcGTO C "AutoAux" End
| 10>       NewCabsGTO C "AutoAux" End
| 11>     End
| 12> 
| 13>                          ****END OF INPUT****
================================================================================
Warning! AutoAux has not been tested for CABS - use at your own risk!
================================================================================

----- Orbital basis set information -----
Your calculation utilizes the basis: jun-cc-pV(D+d)Z 
  E. Papajak, D. G. Truhlar, J. Chem. Theory Comput. 7, 10-18 (2011).

The basis set includes element-specific modifications.

Your calculation utilizes the basis: cc-pVDZ 
       H, B-Ne : Obtained from the ccRepo (grant-hill.group.shef.ac.uk/ccrepo) Feb. 2017
                 T. H. Dunning, Jr., J. Chem. Phys. 90, 1007 (1989)
            He : Obtained from the ccRepo (grant-hill.group.shef.ac.uk/ccrepo) Feb. 2017
                 D. E. Woon, T. H. Dunning, Jr., J. Chem. Phys. 100, 2975 (1994)
  Li-Be, Na-Mg : Obtained from the ccRepo (grant-hill.group.shef.ac.uk/ccrepo) Feb. 2017
                 B. P. Prascher, D. E. Woon, K. A. Peterson, T. H. Dunning, Jr., A. K. Wilson, Theor. Chem. Acc. 128, 69 (2011)
         Al-Ar : Obtained from the ccRepo (grant-hill.group.shef.ac.uk/ccrepo) Feb. 2017
                 D. E. Woon, T. H. Dunning, Jr., J. Chem. Phys. 98, 1358 (1993)
            Ca : Obtained from the Peterson Research Group Website (tyr0.chem.wsu.edu/~kipeters) Feb. 2017
                 J. Koput, K. A. Peterson, J. Phys. Chem. 106, 9595 (2002)
         Sc-Zn : Obtained from the ccRepo (grant-hill.group.shef.ac.uk/ccrepo) Feb. 2017
                 N. B. Balabanov, K. A. Peterson, J. Chem. Phys. 123, 064107 (2005)
                 N. B. Balabanov, K. A. Peterson, J. Chem. Phys. 125, 074110 (2006)
         Ga-Kr : Obtained from the ccRepo (grant-hill.group.shef.ac.uk/ccrepo) Feb. 2017
                 A. K. Wilson, D. E. Woon, K. A. Peterson, T. H. Dunning, Jr., J. Chem. Phys. 110, 7667 (1999)

----- AuxJ basis set information -----
Your calculation utilizes the AutoAux generation procedure.
  G. L. Stoychev, A. A. Auer, F. Neese, J. Chem. Theory Comput. 13, 554 (2017)

The basis set includes element-specific modifications.

----- AuxC basis set information -----
Your calculation utilizes the AutoAux generation procedure.
  G. L. Stoychev, A. A. Auer, F. Neese, J. Chem. Theory Comput. 13, 554 (2017)

The basis set includes element-specific modifications.

----- CABS information -----
Your calculation utilizes the AutoAux generation procedure.
  G. L. Stoychev, A. A. Auer, F. Neese, J. Chem. Theory Comput. 13, 554 (2017)

The basis set includes element-specific modifications.


                    <<< The CABS basis set will be decontracted >>>

================================================================================
                                        WARNINGS
                       Please study these warnings very carefully!
================================================================================


WARNING: Post HF methods need fully converged wavefunctions
  ===> : Setting SCFConvForced true
         You can overwrite this default with %scf ConvForced false 


WARNING: MDCI localization with Augmented Hessian Foster-Boys
  ===> : Switching off randomization!

INFO   : the flag for use of the SHARK integral package has been found!


                       ****************************
                       * Single Point Calculation *
                       ****************************

---------------------------------
CARTESIAN COORDINATES (ANGSTROEM)
---------------------------------
  C      2.433561    0.718355    0.000000
  C      1.253087    1.388888    0.000000
  C      0.000871    0.705905    0.000000
  C     -0.000871   -0.705905    0.000000
  C      1.253087   -1.429844    0.000000
  C      2.475256   -0.702900    0.000000
  C     -1.253087    1.429844    0.000000
  C     -1.253087   -1.388888    0.000000
  C     -2.433561   -0.718355    0.000000
  C     -2.475256    0.702900    0.000000
  C     -3.705461    1.394656    0.000000
  H     -4.623137    0.820005    0.000000
  C     -3.745186    2.766713    0.000000
  C     -2.543059    3.493216    0.000000
  C     -1.332210    2.840958    0.000000
  H      1.273534    2.467518    0.000000
  H     -1.273534   -2.467518    0.000000
  H     -4.693136    3.287431    0.000000
  H     -2.568507    4.574669    0.000000
  H     -0.431147    3.434756    0.000000
  C      3.705461   -1.394656    0.000000
  H      4.623137   -0.820005    0.000000
  C      1.332210   -2.840958    0.000000
  H      0.431147   -3.434756    0.000000
  C      3.745186   -2.766713    0.000000
  C      2.543059   -3.493216    0.000000
  H      4.693136   -3.287431    0.000000
  H      2.568507   -4.574669    0.000000
  H      3.368325    1.264575    0.000000
  H     -3.368325   -1.264575    0.000000

----------------------------
CARTESIAN COORDINATES (A.U.)
----------------------------
  NO LB      ZA    FRAG     MASS         X           Y           Z
   0 C     6.0000    0    12.011    4.598764    1.357494    0.000000
   1 C     6.0000    0    12.011    2.367991    2.624618    0.000000
   2 C     6.0000    0    12.011    0.001646    1.333967    0.000000
   3 C     6.0000    0    12.011   -0.001646   -1.333967    0.000000
   4 C     6.0000    0    12.011    2.367991   -2.702014    0.000000
   5 C     6.0000    0    12.011    4.677556   -1.328288    0.000000
   6 C     6.0000    0    12.011   -2.367991    2.702014    0.000000
   7 C     6.0000    0    12.011   -2.367991   -2.624618    0.000000
   8 C     6.0000    0    12.011   -4.598764   -1.357494    0.000000
   9 C     6.0000    0    12.011   -4.677556    1.328288    0.000000
  10 C     6.0000    0    12.011   -7.002306    2.635518    0.000000
  11 H     1.0000    0     1.008   -8.736463    1.549585    0.000000
  12 C     6.0000    0    12.011   -7.077376    5.228330    0.000000
  13 C     6.0000    0    12.011   -4.805685    6.601222    0.000000
  14 C     6.0000    0    12.011   -2.517512    5.368633    0.000000
  15 H     1.0000    0     1.008    2.406630    4.662933    0.000000
  16 H     1.0000    0     1.008   -2.406630   -4.662933    0.000000
  17 H     1.0000    0     1.008   -8.868742    6.212344    0.000000
  18 H     1.0000    0     1.008   -4.853775    8.644872    0.000000
  19 H     1.0000    0     1.008   -0.814750    6.490748    0.000000
  20 C     6.0000    0    12.011    7.002306   -2.635518    0.000000
  21 H     1.0000    0     1.008    8.736463   -1.549585    0.000000
  22 C     6.0000    0    12.011    2.517512   -5.368633    0.000000
  23 H     1.0000    0     1.008    0.814750   -6.490748    0.000000
  24 C     6.0000    0    12.011    7.077376   -5.228330    0.000000
  25 C     6.0000    0    12.011    4.805685   -6.601222    0.000000
  26 H     1.0000    0     1.008    8.868742   -6.212344    0.000000
  27 H     1.0000    0     1.008    4.853775   -8.644872    0.000000
  28 H     1.0000    0     1.008    6.365212    2.389700    0.000000
  29 H     1.0000    0     1.008   -6.365212   -2.389700    0.000000



           ************************************************************
           *        Program running with 10 parallel MPI-processes    *
           *              working on a common directory               *
           ************************************************************
------------------------------------------------------------------------------
                   ___                                                        
                  /   \      - P O W E R E D   B Y -                         
                 /     \                                                     
                 |  |  |   _    _      __       _____    __    __             
                 |  |  |  | |  | |    /  \     |  _  \  |  |  /  |          
                  \  \/   | |  | |   /    \    | | | |  |  | /  /          
                 / \  \   | |__| |  /  /\  \   | |_| |  |  |/  /          
                |  |  |   |  __  | /  /__\  \  |    /   |      \           
                |  |  |   | |  | | |   __   |  |    \   |  |\   \          
                \     /   | |  | | |  |  |  |  | |\  \  |  | \   \       
                 \___/    |_|  |_| |__|  |__|  |_| \__\ |__|  \__/        
                                                                              
                      - O R C A' S   B I G   F R I E N D -                    
                                      &                                       
                       - I N T E G R A L  F E E D E R -                       
                                                                              
 v1 FN, 2020, v2 2021                                                         
------------------------------------------------------------------------------


Reading SHARK input file chrysene-lw1x-no-diffuse-on-c_Compound_1.SHARKINP.tmp ... ok
----------------------
SHARK INTEGRAL PACKAGE
----------------------

Number of atoms                             ...     30
Number of basis functions                   ...    312
Number of shells                            ...    144
Maximum angular momentum                    ...      2
Integral batch strategy                     ... SHARK/LIBINT Hybrid
RI-J (if used) integral strategy            ... SPLIT-RIJ (Revised 2003 algorithm where possible)
Printlevel                                  ...      1
Contraction scheme used                     ... SEGMENTED contraction
Coulomb Range Separation                    ... NOT USED
Exchange Range Separation                   ... NOT USED
Finite Nucleus Model                        ... NOT USED
Auxiliary Coulomb fitting basis             ... AVAILABLE
   # of basis functions in Aux-J            ...   2238
   # of shells in Aux-J                     ...    810
   Maximum angular momentum in Aux-J        ...      3
Auxiliary J/K fitting basis                 ... NOT available
Auxiliary Correlation fitting basis         ... AVAILABLE
   # of basis functions in Aux-C            ...   2238
   # of shells in Aux-C                     ...    810
   Maximum angular momentum in Aux-C        ...      3
Auxiliary 'external' fitting basis          ... NOT available
Integral threshold                          ...     1.000000e-10
Primitive cut-off                           ...     1.000000e-11
Primitive pair pre-selection threshold      ...     1.000000e-11

Calculating pre-screening integrals         ... done (  0.2 sec) Dimension = 144
Organizing shell pair data                  ... done (  0.1 sec)
Shell pair information
Total number of shell pairs                 ...     10440
Shell pairs after pre-screening             ...      8530
Total number of primitive shell pairs       ...    105294
Primitive shell pairs kept                  ...     41801
          la=0 lb=0:   2521 shell pairs
          la=1 lb=0:   3052 shell pairs
          la=1 lb=1:    978 shell pairs
          la=2 lb=0:   1142 shell pairs
          la=2 lb=1:    700 shell pairs
          la=2 lb=2:    137 shell pairs

Calculating one electron integrals          ... done (  0.0 sec)
Calculating RI/J V-Matrix + Cholesky decomp.... done (  0.4 sec)
Calculating RI/C V-Matrix + Cholesky decomp.... done (  0.7 sec)
Calculating Nuclear repulsion               ... done (  0.0 sec) ENN=   1140.304490031870 Eh

SHARK setup successfully completed in   1.7 seconds

Maximum memory used throughout the entire GTOINT-calculation: 27.7 MB


           ************************************************************
           *        Program running with 10 parallel MPI-processes    *
           *              working on a common directory               *
           ************************************************************

Diagonalization of the overlap matrix:
Smallest eigenvalue                        ... 8.197e-05
Time for diagonalization                   ...    0.033 sec
Threshold for overlap eigenvalues          ... 1.000e-08
Number of eigenvalues below threshold      ... 0
Time for construction of square roots      ...    0.014 sec
Total time needed                          ...    0.049 sec

Time for model grid setup =    0.253 sec

Loading Hartree-Fock densities                     ... done
Calculating cut-offs                               ... done
Initializing the effective Hamiltonian             ... done
Setting up the integral package (SHARK)            ... done
Starting the Coulomb interaction                   ... done (   0.3 sec)
Reading the grid                                   ... done
Mapping shells                                     ... done
Starting the XC term evaluation                    ... done (   0.2 sec)
Transforming the Hamiltonian                       ... done (   0.0 sec)
Diagonalizing the Hamiltonian                      ... done (   0.0 sec)
Back transforming the eigenvectors                 ... done (   0.0 sec)
Now organizing SCF variables                       ... done
--------------------
COSX GRID GENERATION
--------------------

GRIDX 1
-------
General Integration Accuracy     IntAcc      ... 4.020
Radial Grid Type                 RadialGrid  ... OptM3 with GC (2021)
Angular Grid (max. ang.)         AngularGrid ... 2 (Lebedev-110)
Angular grid pruning method      GridPruning ... 4 (adaptive)
Weight generation scheme         WeightScheme... Becke
Basis function cutoff            BFCut       ... 1.0000e-10
Integration weight cutoff        WCut        ... 1.0000e-14
Angular grids for H and He will be reduced by one unit
Partially contracted basis set               ... on
Rotationally invariant grid construction     ... off

Total number of grid points                  ...    40468
Total number of batches                      ...      652
Average number of points per batch           ...       62
Average number of grid points per atom       ...     1349
UseSFitting                                  ... on

GRIDX 2
-------
General Integration Accuracy     IntAcc      ... 4.338
Radial Grid Type                 RadialGrid  ... OptM3 with GC (2021)
Angular Grid (max. ang.)         AngularGrid ... 3 (Lebedev-194)
Angular grid pruning method      GridPruning ... 4 (adaptive)
Weight generation scheme         WeightScheme... Becke
Basis function cutoff            BFCut       ... 1.0000e-10
Integration weight cutoff        WCut        ... 1.0000e-14
Angular grids for H and He will be reduced by one unit
Partially contracted basis set               ... on
Rotationally invariant grid construction     ... off

Total number of grid points                  ...    88878
Total number of batches                      ...     1402
Average number of points per batch           ...       63
Average number of grid points per atom       ...     2963
UseSFitting                                  ... on

GRIDX 3
-------
General Integration Accuracy     IntAcc      ... 4.871
Radial Grid Type                 RadialGrid  ... OptM3 with GC (2021)
Angular Grid (max. ang.)         AngularGrid ... 4 (Lebedev-302)
Angular grid pruning method      GridPruning ... 4 (adaptive)
Weight generation scheme         WeightScheme... Becke
Basis function cutoff            BFCut       ... 1.0000e-10
Integration weight cutoff        WCut        ... 1.0000e-14
Angular grids for H and He will be reduced by one unit
Partially contracted basis set               ... on
Rotationally invariant grid construction     ... off

Total number of grid points                  ...   165504
Total number of batches                      ...     2600
Average number of points per batch           ...       63
Average number of grid points per atom       ...     5517
UseSFitting                                  ... on

Time for X-Grid setup             =    2.226 sec

 re-compute Schwartz prescreening matrix in partically contracted basis (1) ...done (   0.105 sec)
--------------
SCF ITERATIONS
--------------
ITER       Energy         Delta-E        Max-DP      RMS-DP      [F,P]     Damp
               ***  Starting incremental Fock matrix formation  ***
  0   -688.1663398676   0.000000000000 0.12453643  0.00347150  0.1584838 0.7000
  1   -688.3450798715  -0.178740003959 0.09798353  0.00269721  0.1064583 0.7000
                               ***Turning on DIIS***
  2   -688.4610341295  -0.115954258001 0.23432805  0.00635580  0.0657458 0.0000
  3   -687.6923360568   0.768698072762 0.01092198  0.00045925  0.0241517 0.0000
  4   -688.6810445243  -0.988708467523 0.00503373  0.00022700  0.0049950 0.0000
                      *** Initiating the SOSCF procedure ***
                           *** Shutting down DIIS ***
                      *** Re-Reading the Fockian *** 
                      *** Removing any level shift *** 
ITER      Energy       Delta-E        Grad      Rot      Max-DP    RMS-DP
  5   -688.70027153  -0.0192270028  0.001801  0.001801  0.002304  0.000096
               *** Restarting incremental Fock matrix formation ***
  6   -688.71080342  -0.0105318978  0.000864  0.002267  0.001405  0.000045
  7   -688.71084982  -0.0000463926  0.000530  0.002288  0.001761  0.000043
  8   -688.71086509  -0.0000152745  0.000247  0.000491  0.000286  0.000013
  9   -688.71086728  -0.0000021867  0.000063  0.000145  0.000079  0.000003
                 **** Energy Check signals convergence ****
              ***Rediagonalizing the Fockian in SOSCF/NRSCF***

               *****************************************************
               *                     SUCCESS                       *
               *           SCF CONVERGED AFTER  10 CYCLES          *
               *****************************************************

Old exchange energy                            =    -97.812096647 Eh
New exchange energy                            =    -97.812043363 Eh
Exchange energy change after final integration =      0.000053284 Eh
Total energy after final integration           =   -688.710814033 Eh
Final COS-X integration done in                =     7.691 sec
Total Energy       :         -688.71081403 Eh          -18740.77401 eV
  Last Energy change         ...   -3.8685e-08  Tolerance :   1.0000e-06
  Last MAX-Density change    ...    4.4409e-15  Tolerance :   1.0000e-05
             **** THE GBW FILE WAS UPDATED (chrysene-lw1x-no-diffuse-on-c_Compound_1.gbw) ****
             **** DENSITY chrysene-lw1x-no-diffuse-on-c_Compound_1.scfp WAS UPDATED ****
             **** ENERGY FILE WAS UPDATED (chrysene-lw1x-no-diffuse-on-c_Compound_1.en.tmp) ****
             **** THE GBW FILE WAS UPDATED (chrysene-lw1x-no-diffuse-on-c_Compound_1.gbw) ****
             **** DENSITY chrysene-lw1x-no-diffuse-on-c_Compound_1.scfp WAS UPDATED ****
----------------
ORBITAL ENERGIES
----------------

  NO   OCC          E(Eh)            E(eV) 
   0   2.0000     -11.252408      -306.1936 
   1   2.0000     -11.251466      -306.1679 
   2   2.0000     -11.250627      -306.1451 
   3   2.0000     -11.250468      -306.1408 
   4   2.0000     -11.246179      -306.0241 
   5   2.0000     -11.246179      -306.0241 
   6   2.0000     -11.241122      -305.8865 
   7   2.0000     -11.241122      -305.8865 
   8   2.0000     -11.240857      -305.8793 
   9   2.0000     -11.240854      -305.8792 
  10   2.0000     -11.240683      -305.8745 
  11   2.0000     -11.240682      -305.8745 
  12   2.0000     -11.239799      -305.8505 
  13   2.0000     -11.239799      -305.8505 
  14   2.0000     -11.239384      -305.8392 
  15   2.0000     -11.239381      -305.8391 
  16   2.0000     -11.239037      -305.8297 
  17   2.0000     -11.239037      -305.8297 
  18   2.0000      -1.195411       -32.5288 
  19   2.0000      -1.166599       -31.7448 
  20   2.0000      -1.120996       -30.5039 
  21   2.0000      -1.096195       -29.8290 
  22   2.0000      -1.049928       -28.5700 
  23   2.0000      -1.045215       -28.4417 
  24   2.0000      -1.007275       -27.4094 
  25   2.0000      -0.989630       -26.9292 
  26   2.0000      -0.974386       -26.5144 
  27   2.0000      -0.866358       -23.5748 
  28   2.0000      -0.858997       -23.3745 
  29   2.0000      -0.855000       -23.2657 
  30   2.0000      -0.818598       -22.2752 
  31   2.0000      -0.805892       -21.9294 
  32   2.0000      -0.743884       -20.2421 
  33   2.0000      -0.715341       -19.4654 
  34   2.0000      -0.703189       -19.1347 
  35   2.0000      -0.698587       -19.0095 
  36   2.0000      -0.663982       -18.0679 
  37   2.0000      -0.644988       -17.5510 
  38   2.0000      -0.637509       -17.3475 
  39   2.0000      -0.609205       -16.5773 
  40   2.0000      -0.602740       -16.4014 
  41   2.0000      -0.600967       -16.3531 
  42   2.0000      -0.582362       -15.8469 
  43   2.0000      -0.572825       -15.5874 
  44   2.0000      -0.562512       -15.3067 
  45   2.0000      -0.560190       -15.2436 
  46   2.0000      -0.554080       -15.0773 
  47   2.0000      -0.532314       -14.4850 
  48   2.0000      -0.516561       -14.0563 
  49   2.0000      -0.508286       -13.8312 
  50   2.0000      -0.494032       -13.4433 
  51   2.0000      -0.479311       -13.0427 
  52   2.0000      -0.461664       -12.5625 
  53   2.0000      -0.457570       -12.4511 
  54   2.0000      -0.431427       -11.7397 
  55   2.0000      -0.377923       -10.2838 
  56   2.0000      -0.361956        -9.8493 
  57   2.0000      -0.321124        -8.7382 
  58   2.0000      -0.290305        -7.8996 
  59   2.0000      -0.270083        -7.3493 
  60   0.0000       0.073759         2.0071 
  61   0.0000       0.089174         2.4266 
  62   0.0000       0.111961         3.0466 
  63   0.0000       0.164955         4.4887 
  64   0.0000       0.166929         4.5424 
  65   0.0000       0.185378         5.0444 
  66   0.0000       0.187700         5.1076 
  67   0.0000       0.189959         5.1691 
  68   0.0000       0.208938         5.6855 
  69   0.0000       0.216433         5.8894 
  70   0.0000       0.232728         6.3328 
  71   0.0000       0.239193         6.5088 
  72   0.0000       0.251089         6.8325 
  73   0.0000       0.251245         6.8367 
  74   0.0000       0.266758         7.2589 
  75   0.0000       0.281188         7.6515 
  76   0.0000       0.284987         7.7549 
  77   0.0000       0.331185         9.0120 
  78   0.0000       0.340839         9.2747 
  79   0.0000       0.371378        10.1057 
  80   0.0000       0.390122        10.6158 
  81   0.0000       0.402449        10.9512 
  82   0.0000       0.414298        11.2736 
  83   0.0000       0.425580        11.5806 
  84   0.0000       0.445798        12.1308 
  85   0.0000       0.448382        12.2011 
  86   0.0000       0.458554        12.4779 
  87   0.0000       0.463612        12.6155 
  88   0.0000       0.469990        12.7891 
  89   0.0000       0.473272        12.8784 
  90   0.0000       0.501320        13.6416 
  91   0.0000       0.512872        13.9560 
  92   0.0000       0.553200        15.0533 
  93   0.0000       0.564409        15.3583 
  94   0.0000       0.588166        16.0048 
  95   0.0000       0.589858        16.0509 
  96   0.0000       0.644094        17.5267 
  97   0.0000       0.656301        17.8589 
  98   0.0000       0.658148        17.9091 
  99   0.0000       0.658152        17.9092 
 100   0.0000       0.667678        18.1684 
 101   0.0000       0.675314        18.3762 
 102   0.0000       0.680516        18.5178 
 103   0.0000       0.686352        18.6766 
 104   0.0000       0.686965        18.6933 
 105   0.0000       0.687034        18.6951 
 106   0.0000       0.698017        18.9940 
 107   0.0000       0.700470        19.0608 
 108   0.0000       0.717238        19.5170 
 109   0.0000       0.718046        19.5390 
 110   0.0000       0.725226        19.7344 
 111   0.0000       0.732610        19.9353 
 112   0.0000       0.732798        19.9404 
 113   0.0000       0.736985        20.0544 
 114   0.0000       0.738871        20.1057 
 115   0.0000       0.745078        20.2746 
 116   0.0000       0.756105        20.5747 
 117   0.0000       0.756367        20.5818 
 118   0.0000       0.757215        20.6049 
 119   0.0000       0.759042        20.6546 
 120   0.0000       0.764724        20.8092 
 121   0.0000       0.774119        21.0648 
 122   0.0000       0.775147        21.0928 
 123   0.0000       0.787128        21.4189 
 124   0.0000       0.797390        21.6981 
 125   0.0000       0.797454        21.6998 
 126   0.0000       0.806788        21.9538 
 127   0.0000       0.810911        22.0660 
 128   0.0000       0.812321        22.1044 
 129   0.0000       0.854671        23.2568 
 130   0.0000       0.868664        23.6375 
 131   0.0000       0.875269        23.8173 
 132   0.0000       0.876935        23.8626 
 133   0.0000       0.881591        23.9893 
 134   0.0000       0.887577        24.1522 
 135   0.0000       0.914162        24.8756 
 136   0.0000       0.917820        24.9752 
 137   0.0000       0.921519        25.0758 
 138   0.0000       0.927329        25.2339 
 139   0.0000       0.938875        25.5481 
 140   0.0000       0.947864        25.7927 
 141   0.0000       0.949300        25.8318 
 142   0.0000       0.952486        25.9185 
 143   0.0000       0.955236        25.9933 
 144   0.0000       0.990882        26.9633 
 145   0.0000       1.001669        27.2568 
 146   0.0000       1.015255        27.6265 
 147   0.0000       1.022814        27.8322 
 148   0.0000       1.048973        28.5440 
 149   0.0000       1.077733        29.3266 
 150   0.0000       1.102081        29.9891 
 151   0.0000       1.103149        30.0182 
 152   0.0000       1.117786        30.4165 
 153   0.0000       1.130197        30.7542 
 154   0.0000       1.134301        30.8659 
 155   0.0000       1.141460        31.0607 
 156   0.0000       1.142299        31.0835 
 157   0.0000       1.145495        31.1705 
 158   0.0000       1.148554        31.2538 
 159   0.0000       1.157956        31.5096 
 160   0.0000       1.159768        31.5589 
 161   0.0000       1.164782        31.6953 
 162   0.0000       1.187614        32.3166 
 163   0.0000       1.195372        32.5277 
 164   0.0000       1.197532        32.5865 
 165   0.0000       1.201708        32.7001 
 166   0.0000       1.202744        32.7283 
 167   0.0000       1.224877        33.3306 
 168   0.0000       1.229552        33.4578 
 169   0.0000       1.230049        33.4713 
 170   0.0000       1.241178        33.7742 
 171   0.0000       1.244735        33.8710 
 172   0.0000       1.253948        34.1217 
 173   0.0000       1.262225        34.3469 
 174   0.0000       1.272971        34.6393 
 175   0.0000       1.293230        35.1906 
 176   0.0000       1.293879        35.2082 
 177   0.0000       1.299298        35.3557 
 178   0.0000       1.310841        35.6698 
 179   0.0000       1.318952        35.8905 
 180   0.0000       1.327346        36.1189 
 181   0.0000       1.335235        36.3336 
 182   0.0000       1.355339        36.8806 
 183   0.0000       1.355778        36.8926 
 184   0.0000       1.369729        37.2722 
 185   0.0000       1.379805        37.5464 
 186   0.0000       1.416826        38.5538 
 187   0.0000       1.440756        39.2050 
 188   0.0000       1.544042        42.0155 
 189   0.0000       1.552679        42.2505 
 190   0.0000       1.556596        42.3571 
 191   0.0000       1.599305        43.5193 
 192   0.0000       1.607465        43.7414 
 193   0.0000       1.608623        43.7729 
 194   0.0000       1.626150        44.2498 
 195   0.0000       1.627093        44.2755 
 196   0.0000       1.641364        44.6638 
 197   0.0000       1.643636        44.7256 
 198   0.0000       1.667715        45.3808 
 199   0.0000       1.680332        45.7242 
 200   0.0000       1.695159        46.1276 
 201   0.0000       1.716746        46.7150 
 202   0.0000       1.722255        46.8649 
 203   0.0000       1.745944        47.5095 
 204   0.0000       1.746747        47.5314 
 205   0.0000       1.749550        47.6077 
 206   0.0000       1.749593        47.6088 
 207   0.0000       1.755107        47.7589 
 208   0.0000       1.755681        47.7745 
 209   0.0000       1.783466        48.5306 
 210   0.0000       1.803769        49.0830 
 211   0.0000       1.831651        49.8418 
 212   0.0000       1.834468        49.9184 
 213   0.0000       1.843407        50.1617 
 214   0.0000       1.858409        50.5699 
 215   0.0000       1.869689        50.8768 
 216   0.0000       1.874781        51.0154 
 217   0.0000       1.896867        51.6164 
 218   0.0000       1.911378        52.0112 
 219   0.0000       1.911707        52.0202 
 220   0.0000       1.914827        52.1051 
 221   0.0000       1.915108        52.1127 
 222   0.0000       1.928179        52.4684 
 223   0.0000       1.928675        52.4819 
 224   0.0000       1.930805        52.5399 
 225   0.0000       1.948436        53.0196 
 226   0.0000       1.956084        53.2278 
 227   0.0000       1.957872        53.2764 
 228   0.0000       1.970505        53.6202 
 229   0.0000       1.973831        53.7107 
 230   0.0000       1.988315        54.1048 
 231   0.0000       1.997439        54.3531 
 232   0.0000       1.999456        54.4080 
 233   0.0000       2.021758        55.0148 
 234   0.0000       2.030628        55.2562 
 235   0.0000       2.035462        55.3877 
 236   0.0000       2.049023        55.7567 
 237   0.0000       2.054631        55.9093 
 238   0.0000       2.062637        56.1272 
 239   0.0000       2.065082        56.1937 
 240   0.0000       2.069972        56.3268 
 241   0.0000       2.081016        56.6273 
 242   0.0000       2.097414        57.0735 
 243   0.0000       2.106739        57.3273 
 244   0.0000       2.138055        58.1794 
 245   0.0000       2.142925        58.3120 
 246   0.0000       2.144299        58.3493 
 247   0.0000       2.149267        58.4845 
 248   0.0000       2.150680        58.5230 
 249   0.0000       2.161856        58.8271 
 250   0.0000       2.174045        59.1588 
 251   0.0000       2.180857        59.3441 
 252   0.0000       2.182369        59.3853 
 253   0.0000       2.196351        59.7658 
 254   0.0000       2.210488        60.1504 
 255   0.0000       2.212722        60.2112 
 256   0.0000       2.222386        60.4742 
 257   0.0000       2.241190        60.9859 
 258   0.0000       2.242756        61.0285 
 259   0.0000       2.256039        61.3899 
 260   0.0000       2.273827        61.8740 
 261   0.0000       2.288223        62.2657 
 262   0.0000       2.299511        62.5729 
 263   0.0000       2.329419        63.3867 
 264   0.0000       2.341932        63.7272 
 265   0.0000       2.364730        64.3476 
 266   0.0000       2.376089        64.6567 
 267   0.0000       2.376335        64.6633 
 268   0.0000       2.378466        64.7213 
 269   0.0000       2.398735        65.2729 
 270   0.0000       2.401502        65.3482 
 271   0.0000       2.431499        66.1645 
 272   0.0000       2.467625        67.1475 
 273   0.0000       2.500816        68.0507 
 274   0.0000       2.509681        68.2919 
 275   0.0000       2.529746        68.8379 
 276   0.0000       2.541567        69.1596 
 277   0.0000       2.553174        69.4754 
 278   0.0000       2.571445        69.9726 
 279   0.0000       2.588087        70.4254 
 280   0.0000       2.630354        71.5756 
 281   0.0000       2.687634        73.1342 
 282   0.0000       2.695763        73.3554 
 283   0.0000       2.719473        74.0006 
 284   0.0000       2.730997        74.3142 
 285   0.0000       2.748218        74.7828 
 286   0.0000       2.760809        75.1254 
 287   0.0000       2.778546        75.6081 
 288   0.0000       2.825179        76.8770 
 289   0.0000       2.827243        76.9332 
 290   0.0000       2.851559        77.5949 
 291   0.0000       2.858759        77.7908 
 292   0.0000       2.863852        77.9294 
 293   0.0000       2.959003        80.5186 
 294   0.0000       2.983383        81.1820 
 295   0.0000       3.021968        82.2319 
 296   0.0000       3.041207        82.7554 
 297   0.0000       3.058943        83.2381 
 298   0.0000       3.075868        83.6986 
 299   0.0000       3.080248        83.8178 
 300   0.0000       3.099078        84.3302 
 301   0.0000       3.109645        84.6177 
 302   0.0000       3.153265        85.8047 
 303   0.0000       3.183521        86.6280 
 304   0.0000       3.241980        88.2188 
 305   0.0000       3.260504        88.7228 
 306   0.0000       3.329274        90.5942 
 307   0.0000       3.338518        90.8457 
 308   0.0000       3.749438       102.0274 
 309   0.0000       3.760150       102.3189 
 310   0.0000       3.924647       106.7951 
 311   0.0000       4.024717       109.5181 
Total SCF time: 0 days 0 hours 0 min 52 sec 

Maximum memory used throughout the entire SCF-calculation: 91.8 MB


           ************************************************************
           *        Program running with 10 parallel MPI-processes    *
           *              working on a common directory               *
           ************************************************************


------------------------------------------------------------------------------- 
                              ORCA-MATRIX DRIVEN CI                            
------------------------------------------------------------------------------- 


Wavefunction type
-----------------
Correlation treatment                      ...      CCSD     
Single excitations                         ... ON
Orbital optimization                       ... OFF
Calculation of Z vector                    ... OFF
Calculation of Brueckner orbitals          ... OFF
Perturbative triple excitations            ... ON
Calculation of F12 correction              ... ON
   Using RI for F12 correction             ... ON
   GSO occupation number cut-off           ... 0.000e+00
Frozen core treatment                      ... chemical core (36 el)
Reference Wavefunction                     ... RHF
  Internal Orbitals:    18 ...   59 ( 42 MO's/ 84 electrons)
  Virtual  Orbitals:    60 ...  311 (252 MO's              )
Number of AO's                             ...    312
Number of electrons                        ...    120
Number of correlated electrons             ...     84

Algorithmic settings
--------------------
Integral transformation                    ... All integrals via the RI transformation
K(C) Formation                             ... RI-DLPNO
   PNO-Integral Storage                    ... ON DISK
   PNO occupation number cut-off           ... 1.000e-07
   Singles PNO occupation number cut-off   ... 3.000e-09
   PNO Mulliken prescreening cut-off       ... 1.000e-03
   Domain cut-off (Mulliken population)    ... 1.000e-03
   PNO Normalization                       ...    1
Maximum number of iterations               ...        50
Convergence tolerance (max. residuum)      ... 2.500e-05
Level shift for amplitude update           ... 2.000e-01
Maximum number of DIIS vectors             ...         7
DIIS turned on at iteration                ...         0
Damping before turning on DIIS             ...     0.500
Damping after turning on DIIS              ...     0.000
Pair specific amplitude update             ... OFF
Natural orbital iterations                 ... OFF
Perturbative natural orbital generation    ... OFF
Printlevel                                 ... 2

Singles Fock matrix elements calculated using PNOs.

Memory handling:
----------------
Maximum memory for working arrays          ...   8000 MB
Data storage in matrix containers          ... UNCOMPRESSED
Data type for integral storage             ... DOUBLE
In-Core Storage of quantities:
   Amplitudes+Sigma Vector      ... NO
   J+K operators                ... NO
   DIIS vectors                 ... NO
   3-external integrals         ... NO
   4-external integrals         ... NO

Localization treatment:
-----------------------
Localization option                        ...    6
Localization threshhold                    ... -1.0e+00
Using relative localization threshhold     ... 1.0e-08
Neglect threshold for strong pairs         ... 1.000e-05 Eh
Prescreening threshold for very weak pairs ... 1.000e-07 Eh

Initializing the integral package          ... done
Localizing the valence orbitals
------------------------------------------------------------------------------
                           ORCA ORBITAL LOCALIZATION
------------------------------------------------------------------------------

Input orbitals are from                  ... chrysene-lw1x-no-diffuse-on-c_Compound_1.gbw
Output orbitals are to                   ... chrysene-lw1x-no-diffuse-on-c_Compound_1.loc
Max. number of iterations                ... 128
Localizations seeded randomly            ... off
Convergence tolerance                    ... 1.000e-06
Using relative localization threshhold   ... 1.000e-08
Treshold for strong local MOs            ... 9.500e-01
Treshold for bond MOs                    ... 8.500e-01
Operator                                 ... 0
Orbital range for localization           ... 18 to 59
Localization criterion                   ... FOSTER-BOYS (AUGMENTED HESSIAN)
Doing the dipole integrals     ... o.k.
Initial value of the localization sum :  1554.253369
ITERATION   0 : L= 1609.3019377547 DL=  5.50e+01 (AVERGE_DL)=    0.2528549383 
ITERATION   1 : L= 1620.4482885560 DL=  1.11e+01 (AVERGE_DL)=    0.1137796983 
ITERATION   2 : L= 1621.0392325467 DL=  5.91e-01 (AVERGE_DL)=    0.0261982079 
ITERATION   3 : L= 1621.0681126425 DL=  2.89e-02 (AVERGE_DL)=    0.0057915891 
ITERATION   4 : L= 1621.0695458239 DL=  1.43e-03 (AVERGE_DL)=    0.0012901762 
ITERATION   5 : L= 1621.0696415161 DL=  9.57e-05 (AVERGE_DL)=    0.0003333778 
ITERATION   6 : L= 1621.0696487578 DL=  7.24e-06 (AVERGE_DL)=    0.0000917103 
ITERATION   7 : L= 1621.0696493344 DL=  5.77e-07 (AVERGE_DL)=    0.0000258772 
LOCALIZATION SUM CONVERGED

------------------------------------------------------
AUGMENTED HESSIAN OPTIMIZATION OF FOSTER-BOYS ORBITALS
------------------------------------------------------

Spin operator:           0
Orbital window:          18 to 59
Number of iterations:    128
Gradient tolerance:      1.000e-06
Number of pairs:         861
Davidson threshold:      2000
Diagonalization method:  LAPACK
Iter:    0   L: 1621.0696493344   Grad. norm: 8.599008e-03
   *** Likely close to a maximum now. ***
       Augmented Hessian eigenvalues:  2.37e-07 -3.71e+00 -3.71e+00 -4.00e+00 ... 
Iter:    1   L: 1621.0696494527   Grad. norm: 3.748371e-08
LOCALIZATION HAS CONVERGED.

Eigenvalues of the Hessian:
  0 -3.710e+00
  1 -3.711e+00
  2 -4.003e+00
  3 -4.007e+00
  4 -4.046e+00
  5 -4.047e+00
  6 -4.325e+00
  7 -4.562e+00
  8 -4.579e+00
  9 -1.262e+01
    ...


------------------------------------------------------------------------------- 
                    LOCALIZED MOLECULAR ORBITAL COMPOSITIONS                   
------------------------------------------------------------------------------- 

The Mulliken populations for each LMO on each atom are computed
The LMO`s will be ordered according to atom index and type
  (A) Strongly localized MO`s have populations of >=0.950 on one atom
  (B) Two center bond orbitals have populations of >=0.850 on two atoms
  (C) Other MO`s are considered to be `delocalized`

FOUND  -   0 strongly local MO`s
       -  42 two center bond MO`s
       -   0 significantly delocalized MO`s

Bond-like localized orbitals:
MO  59:  29H  -   0.505695  and   8C  -   0.494647
MO  58:  28H  -   0.505697  and   0C  -   0.494653
MO  57:  27H  -   0.502189  and  25C  -   0.501644
MO  56:  26H  -   0.501047  and  24C  -   0.506063
MO  55:  25C  -   0.514468  and  24C  -   0.516370
MO  54:  25C  -   0.472156  and  22C  -   0.479395
MO  53:  25C  -   0.472156  and  22C  -   0.479396
MO  52:  24C  -   0.474941  and  20C  -   0.477331
MO  51:  24C  -   0.474943  and  20C  -   0.477328
MO  50:  23H  -   0.505944  and  22C  -   0.494328
MO  49:  22C  -   0.519262  and   4C  -   0.514150
MO  48:  21H  -   0.505116  and  20C  -   0.498360
MO  47:  20C  -   0.506647  and   5C  -   0.529027
MO  46:  19H  -   0.505945  and  14C  -   0.494329
MO  45:  18H  -   0.502191  and  13C  -   0.501649
MO  44:  17H  -   0.501049  and  12C  -   0.506063
MO  43:  16H  -   0.506575  and   7C  -   0.493718
MO  42:  15H  -   0.506574  and   1C  -   0.493717
MO  41:  14C  -   0.479404  and  13C  -   0.472153
MO  40:  14C  -   0.479399  and  13C  -   0.472155
MO  39:  14C  -   0.519260  and   6C  -   0.514150
MO  38:  13C  -   0.514465  and  12C  -   0.516374
MO  37:  12C  -   0.474941  and  10C  -   0.477333
MO  36:  12C  -   0.474940  and  10C  -   0.477335
MO  35:  11H  -   0.505118  and  10C  -   0.498361
MO  34:  10C  -   0.506652  and   9C  -   0.529021
MO  33:   9C  -   0.528561  and   8C  -   0.508684
MO  32:   9C  -   0.455769  and   6C  -   0.454802
MO  31:   9C  -   0.455765  and   6C  -   0.454807
MO  30:   8C  -   0.481969  and   7C  -   0.488088
MO  29:   8C  -   0.481971  and   7C  -   0.488086
MO  28:   7C  -   0.518868  and   3C  -   0.514621
MO  27:   6C  -   0.520790  and   2C  -   0.525369
MO  26:   5C  -   0.455766  and   4C  -   0.454804
MO  25:   5C  -   0.455765  and   4C  -   0.454803
MO  24:   5C  -   0.528560  and   0C  -   0.508682
MO  23:   4C  -   0.520793  and   3C  -   0.525365
MO  22:   3C  -   0.466602  and   2C  -   0.466601
MO  21:   3C  -   0.466602  and   2C  -   0.466601
MO  20:   2C  -   0.514619  and   1C  -   0.518870
MO  19:   1C  -   0.488092  and   0C  -   0.481967
MO  18:   1C  -   0.488091  and   0C  -   0.481966
Localized MO's were stored in: chrysene-lw1x-no-diffuse-on-c_Compound_1.loc

Localizing the core orbitals
------------------------------------------------------------------------------
                           ORCA ORBITAL LOCALIZATION
------------------------------------------------------------------------------

Input orbitals are from                  ... chrysene-lw1x-no-diffuse-on-c_Compound_1.loc
Output orbitals are to                   ... chrysene-lw1x-no-diffuse-on-c_Compound_1.loc
Max. number of iterations                ... 128
Localizations seeded randomly            ... off
Convergence tolerance                    ... 1.000e-06
Using relative localization threshhold   ... 1.000e-08
Treshold for strong local MOs            ... 9.500e-01
Treshold for bond MOs                    ... 8.500e-01
Operator                                 ... 0
Orbital range for localization           ... 0 to 17
Localization criterion                   ... FOSTER-BOYS (AUGMENTED HESSIAN)
Doing the dipole integrals     ... o.k.
Initial value of the localization sum :   618.104589
ITERATION   0 : L=  618.1046345373 DL=  4.60e-05 (AVERGE_DL)=    0.0005481996 
ITERATION   1 : L=  618.1046345373 DL=  0.00e+00 (AVERGE_DL)=    0.0000000000 
LOCALIZATION SUM CONVERGED

------------------------------------------------------
AUGMENTED HESSIAN OPTIMIZATION OF FOSTER-BOYS ORBITALS
------------------------------------------------------

Spin operator:           0
Orbital window:          0 to 17
Number of iterations:    128
Gradient tolerance:      1.000e-06
Number of pairs:         153
Davidson threshold:      2000
Diagonalization method:  LAPACK
Iter:    0   L: 618.1046345373   Grad. norm: 8.663564e-04
   *** Likely close to a maximum now. ***
       Augmented Hessian eigenvalues:  7.37e-10 -2.63e+01 -2.63e+01 -2.69e+01 ... 
Iter:    1   L: 618.1046345377   Grad. norm: 9.970996e-13
LOCALIZATION HAS CONVERGED.

Eigenvalues of the Hessian:
  0 -2.633e+01
  1 -2.633e+01
  2 -2.691e+01
  3 -2.691e+01
  4 -2.702e+01
  5 -2.702e+01
  6 -2.818e+01
  7 -2.818e+01
  8 -2.845e+01
  9 -2.845e+01
    ...


------------------------------------------------------------------------------- 
                    LOCALIZED MOLECULAR ORBITAL COMPOSITIONS                   
------------------------------------------------------------------------------- 

The Mulliken populations for each LMO on each atom are computed
The LMO`s will be ordered according to atom index and type
  (A) Strongly localized MO`s have populations of >=0.950 on one atom
  (B) Two center bond orbitals have populations of >=0.850 on two atoms
  (C) Other MO`s are considered to be `delocalized`

FOUND  -  18 strongly local MO`s
       -   0 two center bond MO`s
       -   0 significantly delocalized MO`s

Rather strongly localized orbitals:
MO  17:  25C  -   0.999165
MO  16:  24C  -   0.999180
MO  15:  22C  -   0.998782
MO  14:  20C  -   0.998858
MO  13:  14C  -   0.998782
MO  12:  13C  -   0.999165
MO  11:  12C  -   0.999180
MO  10:  10C  -   0.998857
MO   9:   9C  -   0.998404
MO   8:   8C  -   0.998797
MO   7:   7C  -   0.998714
MO   6:   6C  -   0.998016
MO   5:   5C  -   0.998404
MO   4:   4C  -   0.998015
MO   3:   3C  -   0.997765
MO   2:   2C  -   0.997765
MO   1:   1C  -   0.998714
MO   0:   0C  -   0.998797
Localized MO's were stored in: chrysene-lw1x-no-diffuse-on-c_Compound_1.loc

Warning: reference  - re-canonicalizations have been set to INT 1 VIRT 1
Warning: internal orbitals are localized - no re-canonicalization of internal orbitals
Warning: UsePNO is turned on - no re-canonicalization of internal and virtual orbitals

--------------------------
CLOSED-SHELL FOCK OPERATOR
--------------------------

Restoring SHARK [2] ... ok
Entering RIJCOSX section for the Fock matrix
Trying to retrieve the full J-matrix              ... done
Updating the Fock matrix                          ... done
Making the frozen core Coulomb matrix             ... SHARKdone
Retrieving the full K-matrix                      ... done
Calculating the frozen core K-matrix              ... done
Updating the Fock matrix                          ... done
Time needed for Fock operator              ...            6.798 sec
Reference energy                           ...   -688.710822797

------------------------------
Initializing F12 data
------------------------------

Mapping basis set                  ... done
Dimension of the orbital basis set  = 312
Dimension of the CABS basis set     = 2238
Dimension of the AUX basis set      = 2238
Threshold for CABS orthogonalization = 1.000e-08
Will use an exponential correlation factor -Exp(-gamma r12)/gamma (gamma= 1.200) fit to 6 Gaussians 
Correlation factor:   
  NGauss  :          6      
  Gaussian expansion: 
    a(0)=     0.275538291  d(0)=    -0.219608291 
    a(1)=     1.140545861  d(1)=    -0.254494187 
    a(2)=     3.958256986  d(2)=    -0.154545985 
    a(3)=    13.126859124  d(3)=    -0.093273119 
    a(4)=    49.287410844  d(4)=    -0.057916694 
    a(5)=   272.920095267  d(5)=    -0.035942168 
Calculating one-electron matrices                       ... done (      0.5 sec)
Calculating pre-screening matrices:                     ...
       .... 1/r12 done          (      0.8 sec)
       .... f12/r12 done        (      0.7 sec)
       .... f12 done            (      0.5 sec)
       .... f12^2 done          (      1.8 sec)
       .... [f12,[T1,f12]] done (      1.9 sec)
                                                        ... done (      5.7 sec)
Making CABS spaces                                      ... done (      1.3 sec)
Calculating 2-index 2-center F12 integrals              ... 
Two index explicit correlation integrals  op=0          ... done (      0.1 sec) 
Two index explicit correlation integrals  op=1          ... done (      0.2 sec) 
Two index explicit correlation integrals  op=2          ... done (      0.1 sec) 
Two index explicit correlation integrals  op=3          ... done (      0.2 sec) 
Two index explicit correlation integrals  op=4          ... done (      0.2 sec) 
                                                            done (      0.8 sec)

--------------
DLPNO SETTINGS (2015 fully linear scaling implementation)
--------------

TCutMKN:           1.000e-03
TCutPAO:           1.000e-03
TCutPNO:           1.000e-07
TCutPNOSingles:    3.000e-09
TCutEN:            9.700e-01
TCutPAOExt:        1.000e-01
TCutPairs:         1.000e-05
TCutPre:           1.000e-07
TCutOSV:           1.000e-06
TCutDOij:          1.000e-05
TCutDO:            5.000e-03
TCutC:             1.000e-04
TCutCPAO:          1.000e-03
TCutCMO:           1.000e-03
TScaleDOMP2PreScr: 2.000e+00
TScaleMKNMP2PreScr:1.000e+01
TScalePNOMP2PreScr:1.000e+00
PAO overlap thresh 1.000e-08
Using PNOs for Singles Fock computation
Use new domains
Use fully linear algorithm
TCutTNO:           1.000e-09
TCutMP2Pairs:      1.000e-06
TCutDOStrong:      2.000e-03
TCutMKNStrong:     1.000e-02
TCutMKNWeak:       1.000e-01
TCutDOWeak:        4.000e-03
NTCutTNO:          1

--------------------------
Mulliken population of the LMOs            ... ok
Performing proximity check                 ... No problems found
Calculating differential overlap integrals ... ok

--------------------------
ELECTRON PAIR PRESCREENING
--------------------------

Dipole-based pair screening          .... used

   TCutDOij = 1.000000e-05
   TCutPre  = 1.000000e-07
   .... Finished loop over pairs
Total time spent in the prescreening                  ...     0.012 sec
sum of pair energies estimated for screened out pairs ...       0.000000000000 Eh
Thresholds for map construction and integral transformation for crude MP2:
   TCutMKN                    ...     1.0e-02
   TCutDO                     ...     1.0e-02
   TCutPairs                  ...     1.0e-05
   TCutPNO_CrudeMP2           ...     1.0e-07
   TCutPNOSingles_CrudeMP2    ...     3.0e-09
--------------------------------
LOCAL RI TRANSFORMATION (IAVPAO)
--------------------------------

Orbital window:      18 to 59
Number of PAOs:     312
Basis functions:    312 (144 shells)
Aux. functions:    2238 (810 shells)
Use SHARK:           on

Processing maps (0.0 sec)
Average map sizes:
   Aux shells -> MOs              42.0
   Aux shells -> PAOs            312.0
   MOs        -> AO shells       129.7
   PAOs       -> AO shells       142.8

Calculating integrals (1.0 sec, 223.771 MB)
Sorting integrals (0.5 sec, 223.746 MB)
Total time for the integral transformation: 1.6 sec
--------------------------------
INITIAL GUESS AND PNO GENERATION
--------------------------------

PNO truncation parameters                   .... 
    PAOOverlapThresh   =        1.000e-08

    TCutPairs          =        1.000e-05
    TCutPNO            =        1.000e-07
    TCutPNOSingles     =        3.000e-09
    TCutMP2Pairs       =        1.000e-06
    TCutMKN            =        1.000e-02
    TCutDO             =        1.000e-02

Pair selection                          .... not used
Type of local MP2 treatment                 .... semi-local MP2
Strategy for PNO selection                  .... occupation number selection
Pair density normalization                  .... MP2 norm
Spin component scaling                      .... not used

   .... Finished loop over pairs
Making pair pair interaction lists          ... done

                       ===========================
                        721 OF  903 PAIRS ARE KEPT CCSD PAIRS
                        148 OF  903 PAIRS ARE KEPT MP2 PAIRS FOR (T)
                         34 OF  903 PAIRS ARE SKIPPED
                       ===========================

Total time spent in the initial guess                 ...     7.971 sec
SL-MP2 correlation energy (all non-screened pairs)    ...      -2.192158887465 Eh

Initial PNO correlation energy                        ...      -2.189539292171 Eh
sum of pair energies prescreened and skipped MP2 pairs...      -0.000015424986 Eh
sum of pair energies of crude MP2 skipped pairs only  ...      -0.000015424986 Eh
sum of MP2 pair energies for pairs that were not kept ...      -0.000733563816 Eh
sum of PNO error estimates for the kept pairs         ...      -0.001886031478 Eh
                                                          --------------------
sum of all corrections                                         -0.002619595294
Initial total correlation energy                               -2.192158887465
Thresholds for map construction and integral transformation for fine MP2 and CCSD(T) calculation:
   TCutMKN   ...     1.0e-03
   TCutDO    ...     5.0e-03
   TCutPairs ...     1.0e-05
   TCutCMO   ...     1.0e-03
   TCutCPAO  ...     1.0e-03

Thresholds for map construction and integral transformation for strong Triples:
   TCutMKN   ...     1.0e-02
   TCutDO    ...     1.0e-02
   TCutCMO   ...     1.0e-03
   TCutCPAO  ...     1.0e-03

Thresholds for map construction and integral transformation for weak Triples:
   TCutMKN   ...     1.0e-01
   TCutDO    ...     2.0e-02
   TCutCMO   ...     1.0e-03
   TCutCPAO  ...     1.0e-03

--------------------------------
LOCAL RI TRANSFORMATION (IAVPAO)
--------------------------------

Orbital window:      18 to 59
Number of PAOs:     312
Basis functions:    312 (144 shells)
Aux. functions:    2238 (810 shells)
Use SHARK:           on

Processing maps (0.0 sec)
Average map sizes:
   Aux shells -> MOs              42.0
   Aux shells -> PAOs            312.0
   MOs        -> AO shells       129.7
   PAOs       -> AO shells       142.8

Calculating integrals (0.9 sec, 223.771 MB)
Sorting integrals (0.5 sec, 223.746 MB)
Total time for the integral transformation: 1.6 sec
--------------------------------
INITIAL GUESS AND PNO GENERATION
--------------------------------

PNO truncation parameters                   .... 
    ScaleTCutPNO       =        1.000e-02
    PAOOverlapThresh   =        1.000e-08

    TCutPairs          =        1.000e-05
    TCutPNO            =        1.000e-07
    TCutPNOSingles     =        3.000e-09
    TCutMP2Pairs       =        1.000e-06
    TCutMKN            =        1.000e-03
    TCutDO             =        5.000e-03

Pair selection                          .... not used
Type of local MP2 treatment                 .... full local PMP2
Strategy for PNO selection                  .... occupation number selection
Pair density normalization                  .... MP2 norm
Spin component scaling                      .... not used

PASS-1: Formation of initial guess LMP2 amplitudes
Initial amplitudes guess done. Entering LMP2 iteration loop:
   Max. no of iterations          ...  50
   Energy convergence tolerance   ...    1.0e-07
   Residual convergence tolerance ...    5.0e-07
   Fock matrix cutoff             ...    1.0e-05 Eh
   DIIS convergence acceleration parameters:
        Max # vectors in DIIS     ... 7
        Start iteration of DIIS   ... 0
        Levelshift                ... 2.000e-01
        Damping factor 1          ... 5.000e-01
        Damping factor 2          ... 1.000e+00
   L-MP2 PNO cut-off              ...   1.0e-09
   L-MP2 PNO cut-off (core)       ...   1.0e-11
                           *** Turning on DIIS ***
LMP2-Iter=   0:  ELMP2= -2.270250911392  DE=   7.7e-02 RMAX=   7.8e-03
LMP2-Iter=   1:  ELMP2= -2.309672498967  DE=   3.9e-02 RMAX=   3.7e-03
LMP2-Iter=   2:  ELMP2= -2.320067385676  DE=   1.0e-02 RMAX=   1.7e-03
LMP2-Iter=   3:  ELMP2= -2.321473005250  DE=   1.4e-03 RMAX=   6.3e-04
LMP2-Iter=   4:  ELMP2= -2.321498015574  DE=   2.5e-05 RMAX=   2.1e-04
LMP2-Iter=   5:  ELMP2= -2.321502891125  DE=   4.9e-06 RMAX=   6.0e-05
LMP2-Iter=   6:  ELMP2= -2.321508585962  DE=   5.7e-06 RMAX=   1.8e-05
LMP2-Iter=   7:  ELMP2= -2.321510496956  DE=   1.9e-06 RMAX=   5.1e-06
LMP2-Iter=   8:  ELMP2= -2.321510412082  DE=   8.5e-08 RMAX=   1.6e-06
LMP2-Iter=   9:  ELMP2= -2.321510211429  DE=   2.0e-07 RMAX=   4.6e-07
LMP2-Iter=  10:  ELMP2= -2.321510049271  DE=   1.6e-07 RMAX=   1.1e-07
LMP2-Iter=  11:  ELMP2= -2.321509992819  DE=   5.6e-08 RMAX=   3.0e-08 => CONVERGED
PASS-2: Formation of Pair natural orbitals
   .... Finished loop over pairs

 PNO Occupation Number Statistics: 
  | Av. % of trace(Dij) retained        ...  98.378025463982
  | sigma^2 in % of trace(Dij) retained ...   7.23e+00
  | Av. % of trace(Di) retained         ...  99.999779794004
  | sigma^2 in % of trace(Di) retained  ...   5.27e-09
 Distributions of % trace(Dij) recovered:
  |       >= 99.9  ...   245 ( 28.2 % of all pairs)
  |   [80.0, 90.0) ...    14 (  1.6 % of all pairs)
  |   [90.0, 99.0) ...   320 ( 36.8 % of all pairs)
  |   [99.0, 99.9) ...   290 ( 33.4 % of all pairs)
 Distributions of % trace(Di) recovered :
  |       >= 99.9  ...    42 (100.0 % of all I-pairs )

Making pair pair interaction lists          ... done

                       ===========================
                        721 OF  869 PAIRS ARE KEPT
                       ===========================

Total time spent in the initial guess                 ...   245.035 sec
L-MP2 correlation energy (all non-screened pairs)     ...      -2.321509992819 Eh
L-MP2 PNO error correction                            ...      -0.000039198888 Eh
                                                          --------------------
Initial total L-MP2 energy (non-screened pairs)       ...      -2.321549191707 Eh

Initial PNO correlation energy                        ...      -2.319274359313 Eh
sum of pair energies estimated for screened out pairs ...      -0.000015424986 Eh
sum of MP2 pair energies for pairs that were not kept ...      -0.000957596238 Eh
sum of PNO error estimates for the kept pairs         ...      -0.001708950716 Eh
                                                          --------------------
sum of all corrections                                         -0.002681971940
Initial total correlation energy                               -2.321956331253
Thresholds for map construction and integral transformation for fine MP2 and CCSD(T) calculation:
   TCutMKN   ...     1.0e-03
   TCutDO    ...     5.0e-03
   TCutPairs ...     1.0e-05
   TCutCMO   ...     1.0e-03
   TCutCPAO  ...     1.0e-03

Number of pairs in F12 (TCutDOF12 = 3.000e-04)        ...     721

Time for aux screen maps:            0.024
Time for maps after fine MP2:            0.091
-----------------------------
LOCAL RI TRANSFORMATION (IJV)
-----------------------------

Orbital window:      18 to 59
Basis functions:    312 (144 shells)
Aux. functions:    2238 (810 shells)
Use SHARK:           on

Processing maps (0.0 sec)
Average map sizes:
   Aux shells -> MOs(i)           41.4
   Aux shells -> MOs(j)           42.0
   MOs        -> AO shells       129.7

Calculating integrals (0.8 sec, 29.889 MB)
Sorting integrals (0.1 sec, 29.864 MB)
Total time for the integral transformation: 1.0 sec
--------------------------------
LOCAL RI TRANSFORMATION (VABPAO)
--------------------------------

Number of PAOs:     312
Basis functions:    312 (144 shells)
Aux. functions:    2238 (810 shells)
Use SHARK:           on

Processing maps (0.0 sec)
Average map sizes:
   Aux shells -> PAOs            312.0
   PAOs       -> AO shells       142.8

Calculating integrals (2.0 sec, 1662.134 MB)
Finished


-------------------------------------
Pair Pair Term precalculation with     
RI-(ij|mn) and (im|jn) transformation  
ON THE FLY                             
-------------------------------------

   IBatch   1 (of   9)              ... done (   31.607 sec)
   IBatch   2 (of   9)              ... done (   33.127 sec)
   IBatch   3 (of   9)              ... done (   44.178 sec)
   IBatch   4 (of   9)              ... done (   48.031 sec)
   IBatch   5 (of   9)              ... done (   41.459 sec)
   IBatch   6 (of   9)              ... done (   46.065 sec)
   IBatch   7 (of   9)              ... done (   54.155 sec)
   IBatch   8 (of   9)              ... done (   64.085 sec)
   IBatch   9 (of   9)              ... done (   61.868 sec)
Total EXT                           ...         424.576 sec

---------------------
RI-PNO TRANSFORMATION
---------------------

Total Number of PNOs                   ... 24480
Average number of PNOs per pair        ...    33
Maximal number of PNOs per pair        ...    79
   #pairs with  1 -  5 PNOs   :    0
   #pairs with  6 - 10 PNOs   :   58
   #pairs with 11 - 15 PNOs   :   29
   #pairs with 16 - 20 PNOs   :   53
   #pairs with 21 - 25 PNOs   :  126
   #pairs with 26 - 30 PNOs   :   54
   #pairs with 31 - 35 PNOs   :   66
   #pairs with 36 - 40 PNOs   :   76
   #pairs with 41 - 45 PNOs   :   92
   #pairs with 46 - 50 PNOs   :   72
   #pairs with 51 - 55 PNOs   :   32
   #pairs with 56 - 60 PNOs   :    6
   #pairs with 61 - 65 PNOs   :   14
   #pairs with 66 - 70 PNOs   :   36
   #pairs with 71 - 75 PNOs   :    4
   #pairs with 76 - 80 PNOs   :    3

Generation of (ij|ab)[P] integrals            ... on
Generation of (ia|bc)[P],(ja|bc)[P] integrals ... on
Storage of 3 and 4 external integrals         ... on
Generation of ALL (ka|bc)[P] integrals        ... on
Keep RI integrals in memory                   ... off

Ibatch:  1 (of  1)
Starting 2-4 index PNO integral generation ... done

Timings:
Total PNO integral transformation time     ...        108.276 sec
Size of the 3-external file                ...       371 MB
Size of the 4-external file                ...      2451 MB
Size of the IKJL file                      ...         0 MB
Size of the all 3-external file            ...      7792 MB
Size of the 1-external file                ...        23 MB

Making pair/pair overlap matrices          ... done (   12.096 sec)
Size of the pair overlap file              ... 2829 MB
Redoing the guess amplitudes               ... done (    0.015 sec)

-------------------------
FINAL STARTUP INFORMATION
-------------------------

E(0)                                       ...   -688.710822797
E(L-MP2)                                   ...     -2.321549192
E(L-MP2) including corrections             ...     -2.321956331
Initial E(tot)                             ...   -691.032779129
<T|T>                                      ...      0.750647677
Number of pairs included                   ... 721
Total number of pairs                      ... 903

------------------------------------------------
                  RHF COUPLED CLUSTER ITERATIONS
------------------------------------------------

Number of PNO amplitudes to be optimized   ...      1010484
Number of non-PNO amplitudes               ...     45786384
Untruncated number of regular amplitudes   ...     57344112

Iter       E(tot)           E(Corr)          Delta-E          Residual     Time
  0   -690.904047177     -2.190542407      0.131006784      0.009237293 1823.24
                           *** Turning on DIIS ***
  1   -691.014318601     -2.300813832     -0.110271425      0.005835105 1364.35
  2   -691.081794123     -2.368289354     -0.067475522      0.002572290 1540.37
  3   -691.092956538     -2.379451769     -0.011162415      0.001928773 1469.54
  4   -691.097172701     -2.383667932     -0.004216163      0.000778713 1417.23
  5   -691.098764578     -2.385259809     -0.001591877      0.000368845 1463.05
  6   -691.099214941     -2.385710172     -0.000450363      0.000130241 1378.79
  7   -691.099262484     -2.385757715     -0.000047543      0.000053210 1241.11
  8   -691.099290595     -2.385785825     -0.000028110      0.000023290 1207.22
               --- The Coupled-Cluster iterations have converged ---
Making OccT1 to AO map ... ok
3-index local transformation (OBS,OBS/AUX) for   op=0   ... done (      2.6 sec)
3-index local transformation (OBS,CABS/AUX) for  op=0   ... done (      9.9 sec)
3-index local transformation (OBS,OBS/AUX) for   op=1   ... done (      3.3 sec)
3-index local transformation (OBS,CABS/AUX) for  op=1   ... done (     14.2 sec)
3-index local transformation (OBS,OBS/AUX) for   op=2   ... done (      2.6 sec)
3-index local transformation (OBS,CABS/AUX) for  op=2   ... done (     10.7 sec)
3-index local transformation (OBS,OBS/AUX) for   op=3   ... done (      4.6 sec)
3-index local transformation (OBS,CABS/AUX) for  op=3   ... done (     17.8 sec)
3-index local transformation (OBS,OBS/AUX) for   op=4   ... done (      4.8 sec)
3-index local transformation (OBS,CABS/AUX) for  op=4   ... done (     18.8 sec)
3-index local transformation (OBS,OBS/AUX) of (pa|X)    ... done (     11.0 sec)
3-index local transformation (OBS_T1,OBS/AUX) for op=0  ... done (      2.1 sec)
3-index local transformation (OBS_T1,OBS/AUX) for op=1  ... done (      3.3 sec)
3-index local transformation (OBS_F,OBS/AUX) for op=2   ... done (      2.7 sec)
3-index local transformation (OBS_F,CABS/AUX)for op=2   ... done (     12.0 sec)
------------------------
RHF DLPNO F12 CORRECTION
------------------------

Doing SCF density matrices                              ... done (      0.0 sec)
Calculating RI Coulomb operators
Retrieving the Coulomb fitting basis                    ... done
       .... OBS/OBS done        (      1.9 sec)
       .... CABS/OBS done       (      2.8 sec)
       .... CABS/CABS done      (      4.5 sec)

F12 OBS GRIDX
-------------

General Integration Accuracy     IntAcc      ... 4.338
Radial Grid Type                 RadialGrid  ... OptM3 with GC (2021)
Angular Grid (max. ang.)         AngularGrid ... 3 (Lebedev-194)
Angular grid pruning method      GridPruning ... 5 (extended)
Weight generation scheme         WeightScheme... Becke
Basis function cutoff            BFCut       ... 1.0000e-10
Integration weight cutoff        WCut        ... 1.0000e-14
Angular grids for H and He will be reduced by one unit
Partially contracted basis set               ... on
Rotationally invariant grid construction     ... off

Total number of grid points                  ...   231380
Total number of batches                      ...     3626
Average number of points per batch           ...       63
Average number of grid points per atom       ...     7713

F12 CABS GRIDX
--------------

General Integration Accuracy     IntAcc      ... 4.338
Radial Grid Type                 RadialGrid  ... OptM3 with GC (2021)
Angular Grid (max. ang.)         AngularGrid ... 3 (Lebedev-194)
Angular grid pruning method      GridPruning ... 5 (extended)
Weight generation scheme         WeightScheme... Becke
Basis function cutoff            BFCut       ... 1.0000e-10
Integration weight cutoff        WCut        ... 1.0000e-14
Angular grids for H and He will be reduced by one unit
Partially contracted basis set               ... on
Rotationally invariant grid construction     ... off

Total number of grid points                  ...   231380
Total number of batches                      ...     3626
Average number of points per batch           ...       63
Average number of grid points per atom       ...     7713

Calculating COSX Exchange operators
       .... OBS/OBS done        (     19.6 sec)
       .... CABS/OBS done       (     19.4 sec)
       .... CABS/CABS done      (    109.6 sec)
Completing Fock operators                               ... done (      1.6 sec)
Calculating F12 intermediates (incore)                  ... 

WARNING (ORCA_TOOLS): CalcCholeskyLLoc() returned with error 1
                      Potentially linear dependencies in the aux basis!



WARNING (ORCA_TOOLS): CalcCholeskyLLoc() returned with error 1
                      Potentially linear dependencies in the aux basis!



WARNING (ORCA_TOOLS): CalcCholeskyLLoc() returned with error 1
                      Potentially linear dependencies in the aux basis!



WARNING (ORCA_TOOLS): CalcCholeskyLLoc() returned with error 1
                      Potentially linear dependencies in the aux basis!



WARNING (ORCA_TOOLS): CalcCholeskyLLoc() returned with error 1
                      Potentially linear dependencies in the aux basis!



WARNING (ORCA_TOOLS): CalcCholeskyLLoc() returned with error 1
                      Potentially linear dependencies in the aux basis!



WARNING (ORCA_TOOLS): CalcCholeskyLLoc() returned with error 1
                      Potentially linear dependencies in the aux basis!



WARNING (ORCA_TOOLS): CalcCholeskyLLoc() returned with error 1
                      Potentially linear dependencies in the aux basis!



WARNING (ORCA_TOOLS): CalcCholeskyLLoc() returned with error 1
                      Potentially linear dependencies in the aux basis!



[...]
 869   0.0000      16.907829       460.0854 
 870   0.0000      50.210614      1366.3003 
 871   0.0000      50.228924      1366.7985 
 872   0.0000      50.257876      1367.5863 
 873   0.0000      50.268735      1367.8818 
 874   0.0000      50.308206      1368.9559 
 875   0.0000      50.311007      1369.0321 
 876   0.0000      50.323491      1369.3718 
 877   0.0000      50.336838      1369.7350 
 878   0.0000      50.347807      1370.0335 
 879   0.0000      50.358225      1370.3170 
 880   0.0000      50.362373      1370.4298 
 881   0.0000      50.388058      1371.1288 
 882   0.0000      50.403097      1371.5380 
 883   0.0000      50.434886      1372.4030 
 884   0.0000      50.509557      1374.4349 
 885   0.0000      50.518081      1374.6669 
 886   0.0000      50.523908      1374.8254 
 887   0.0000      50.530703      1375.0103 
 888   0.0000      50.931342      1385.9123 
 889   0.0000      50.946717      1386.3306 
 890   0.0000      50.964478      1386.8139 
 891   0.0000      50.975955      1387.1263 
 892   0.0000      50.993273      1387.5975 
 893   0.0000      51.038201      1388.8200 
 894   0.0000      51.049474      1389.1268 
 895   0.0000      51.051369      1389.1784 
 896   0.0000      51.079024      1389.9309 
 897   0.0000      51.104860      1390.6340 
 898   0.0000      51.132197      1391.3778 
 899   0.0000      51.141954      1391.6433 
 900   0.0000      51.144422      1391.7105 
 901   0.0000      51.169975      1392.4058 
 902   0.0000      51.176030      1392.5706 
 903   0.0000      51.228221      1393.9908 
 904   0.0000      51.229487      1394.0252 
 905   0.0000      51.240456      1394.3237 
 906   0.0000      51.249107      1394.5591 
 907   0.0000      51.255751      1394.7399 
 908   0.0000      51.264960      1394.9905 
 909   0.0000      51.273327      1395.2181 
 910   0.0000      51.276718      1395.3104 
 911   0.0000      51.298504      1395.9033 
 912   0.0000      51.299725      1395.9365 
 913   0.0000      51.311490      1396.2566 
 914   0.0000      51.326834      1396.6741 
 915   0.0000      51.340632      1397.0496 
 916   0.0000      51.356045      1397.4690 
 917   0.0000      51.392089      1398.4498 
 918   0.0000      51.409271      1398.9174 
 919   0.0000      51.535786      1402.3600 
 920   0.0000      51.570682      1403.3096 
 921   0.0000      51.582814      1403.6397 
 922   0.0000      51.727034      1407.5642 
 923   0.0000      51.806635      1409.7302 
 924   0.0000      61.875274      1683.7118 
 925   0.0000      62.020139      1687.6538 
 926   0.0000      62.155971      1691.3500 
 927   0.0000      62.169466      1691.7172 
 928   0.0000      62.366921      1697.0902 
 929   0.0000      62.473391      1699.9874 
 930   0.0000      62.575133      1702.7559 
 931   0.0000      62.623157      1704.0627 
 932   0.0000      62.721545      1706.7400 
 933   0.0000      62.807668      1709.0835 
 934   0.0000      62.863877      1710.6131 
 935   0.0000      62.932495      1712.4803 
 936   0.0000      63.079552      1716.4819 
 937   0.0000      63.231925      1720.6281 
 938   0.0000      63.514300      1728.3120 
 939   0.0000      63.616458      1731.0918 
 940   0.0000      63.878033      1738.2096 
 941   0.0000      64.107680      1744.4587 
Total SCF time: 0 days 0 hours 2 min 14 sec 

Maximum memory used throughout the entire SCF-calculation: 204.2 MB


           ************************************************************
           *        Program running with 10 parallel MPI-processes    *
           *              working on a common directory               *
           ************************************************************

------------------------------------------------------------------------------
                                ORCA  MP2 
------------------------------------------------------------------------------

Freezing NCore=0 chemical core electrons
Initializing SHARK ... done


------------------------------------------------------------------------------
                           ORCA ORBITAL LOCALIZATION
------------------------------------------------------------------------------

Input orbitals are from                  ... chrysene-lw1x-no-diffuse-on-c_Compound_4.gbw
Output orbitals are to                   ... chrysene-lw1x-no-diffuse-on-c_Compound_4.loc
Max. number of iterations                ... 128
Localizations seeded randomly            ... off
Convergence tolerance                    ... 1.000e-06
Treshold for strong local MOs            ... 9.500e-01
Treshold for bond MOs                    ... 8.500e-01
Operator                                 ... 0
Orbital range for localization           ... 0 to 59
Localization criterion                   ... FOSTER-BOYS (AUGMENTED HESSIAN)
Doing the dipole integrals     ... o.k.
Initial value of the localization sum :  1974.936700
ITERATION   0 : L= 2164.5109979315 DL=  1.90e+02 (AVERGE_DL)=    0.3272676625 
ITERATION   1 : L= 2232.0100787549 DL=  6.75e+01 (AVERGE_DL)=    0.1952820368 
ITERATION   2 : L= 2239.2382424588 DL=  7.23e+00 (AVERGE_DL)=    0.0639038990 
ITERATION   3 : L= 2239.4230349038 DL=  1.85e-01 (AVERGE_DL)=    0.0102177547 
ITERATION   4 : L= 2239.4324460040 DL=  9.41e-03 (AVERGE_DL)=    0.0023058633 
ITERATION   5 : L= 2239.4331685890 DL=  7.23e-04 (AVERGE_DL)=    0.0006389367 
ITERATION   6 : L= 2239.4332273332 DL=  5.87e-05 (AVERGE_DL)=    0.0001821779 
ITERATION   7 : L= 2239.4332322980 DL=  4.96e-06 (AVERGE_DL)=    0.0000529619 
ITERATION   8 : L= 2239.4332327285 DL=  4.31e-07 (AVERGE_DL)=    0.0000155963 
LOCALIZATION SUM CONVERGED

------------------------------------------------------
AUGMENTED HESSIAN OPTIMIZATION OF FOSTER-BOYS ORBITALS
------------------------------------------------------

Spin operator:           0
Orbital window:          0 to 59
Number of iterations:    128
Gradient tolerance:      1.000e-06
Number of pairs:         1770
Davidson threshold:      2000
Diagonalization method:  LAPACK
Iter:    0   L: 2239.4332327285   Grad. norm: 1.004381e-02
   *** Likely close to a maximum now. ***
       Augmented Hessian eigenvalues:  2.81e-07 -3.69e+00 -3.69e+00 -3.96e+00 ... 
Iter:    1   L: 2239.4332328688   Grad. norm: 4.036484e-08
LOCALIZATION HAS CONVERGED.

Eigenvalues of the Hessian:
  0 -3.694e+00
  1 -3.695e+00
  2 -3.963e+00
  3 -3.967e+00
  4 -4.028e+00
  5 -4.029e+00
  6 -4.290e+00
  7 -4.574e+00
  8 -4.587e+00
  9 -6.516e+00
    ...


------------------------------------------------------------------------------- 
                    LOCALIZED MOLECULAR ORBITAL COMPOSITIONS                   
------------------------------------------------------------------------------- 

The Mulliken populations for each LMO on each atom are computed
The LMO`s will be ordered according to atom index and type
  (A) Strongly localized MO`s have populations of >=0.950 on one atom
  (B) Two center bond orbitals have populations of >=0.850 on two atoms
  (C) Other MO`s are considered to be `delocalized`

FOUND  -  18 strongly local MO`s
       -  42 two center bond MO`s
       -   0 significantly delocalized MO`s

Rather strongly localized orbitals:
MO  17:  25C  -   1.003497
MO  16:  24C  -   1.003518
MO  15:  22C  -   1.004034
MO  14:  20C  -   1.003846
MO  13:  14C  -   1.004034
MO  12:  13C  -   1.003499
MO  11:  12C  -   1.003520
MO  10:  10C  -   1.003845
MO   9:   9C  -   1.004586
MO   8:   8C  -   1.004381
MO   7:   7C  -   1.004573
MO   6:   6C  -   1.004912
MO   5:   5C  -   1.004589
MO   4:   4C  -   1.004912
MO   3:   3C  -   1.005275
MO   2:   2C  -   1.005273
MO   1:   1C  -   1.004572
MO   0:   0C  -   1.004381
Bond-like localized orbitals:
MO  59:  29H  -   0.455326  and   8C  -   0.568069
MO  58:  28H  -   0.455294  and   0C  -   0.567828
MO  57:  27H  -   0.451608  and  25C  -   0.571584
MO  56:  26H  -   0.450197  and  24C  -   0.571590
MO  55:  25C  -   0.514851  and  24C  -   0.520594
MO  54:  25C  -   0.467671  and  22C  -   0.486317
MO  53:  25C  -   0.467686  and  22C  -   0.486295
MO  52:  24C  -   0.470413  and  20C  -   0.484272
MO  51:  24C  -   0.470430  and  20C  -   0.484254
MO  50:  23H  -   0.452927  and  22C  -   0.566004
MO  49:  22C  -   0.534639  and   4C  -   0.501987
MO  48:  21H  -   0.454950  and  20C  -   0.571078
MO  47:  20C  -   0.497628  and   5C  -   0.532099
MO  46:  19H  -   0.452908  and  14C  -   0.566044
MO  45:  18H  -   0.451630  and  13C  -   0.571443
MO  44:  17H  -   0.450149  and  12C  -   0.571523
MO  43:  16H  -   0.451907  and   7C  -   0.567990
MO  42:  15H  -   0.451912  and   1C  -   0.568004
MO  41:  14C  -   0.486251  and  13C  -   0.467682
MO  40:  14C  -   0.486258  and  13C  -   0.467697
MO  39:  14C  -   0.534652  and   6C  -   0.502073
MO  38:  13C  -   0.514854  and  12C  -   0.520569
MO  37:  12C  -   0.470427  and  10C  -   0.484250
MO  36:  12C  -   0.470404  and  10C  -   0.484292
MO  35:  11H  -   0.454954  and  10C  -   0.571101
MO  34:  10C  -   0.497664  and   9C  -   0.532153
MO  33:   9C  -   0.525083  and   8C  -   0.506424
MO  32:   9C  -   0.456383  and   6C  -   0.442419
MO  31:   9C  -   0.456404  and   6C  -   0.442403
MO  30:   8C  -   0.485499  and   7C  -   0.490554
MO  29:   8C  -   0.485476  and   7C  -   0.490581
MO  28:   7C  -   0.541161  and   3C  -   0.492291
MO  27:   6C  -   0.519152  and   2C  -   0.524356
MO  26:   5C  -   0.456405  and   4C  -   0.442414
MO  25:   5C  -   0.456396  and   4C  -   0.442424
MO  24:   5C  -   0.524997  and   0C  -   0.506509
MO  23:   4C  -   0.519124  and   3C  -   0.524360
MO  22:   3C  -   0.463335  and   2C  -   0.463307
MO  21:   3C  -   0.463343  and   2C  -   0.463315
MO  20:   2C  -   0.492279  and   1C  -   0.541198
MO  19:   1C  -   0.490572  and   0C  -   0.485489
MO  18:   1C  -   0.490535  and   0C  -   0.485531
Localized MO's were stored in: chrysene-lw1x-no-diffuse-on-c_Compound_4.loc



Calculating differential overlap integrals ... ok
Threshold for domain construction in prescreening: TCutDOPre = 3.0e-02

--------------------------
ELECTRON PAIR PRESCREENING
--------------------------

Dipole-based pair screening          .... used

   TCutDOij = 1.000000e-05
   TCutPre  = 1.000000e-06
   .... Finished loop over pairs

                  =====================================
                    14 OF 1830 PAIRS WERE SKIPPED 
                  =====================================

Total time spent in the prescreening                  ...     0.031 sec
sum of pair energies estimated for screened out pairs ...      -0.000000001663 Eh

---------------------------
MAP CONSTRUCTION THRESHOLDS
---------------------------
    TCutMKN     ...     1.0e-03
    TCutDO      ...     5.0e-03
    TCutC(MO)   ...     1.0e-03
    TCutC(PAO)  ...     1.0e-03

--------------------------------
LOCAL RI TRANSFORMATION (IAVPAO)
--------------------------------

Orbital window:       0 to 59
Number of PAOs:     942
Basis functions:    942 (342 shells)
Aux. functions:    4674 (1230 shells)
Use SHARK:           on

Processing maps (0.1 sec)
Average map sizes:
   Aux shells -> MOs              60.0
   Aux shells -> PAOs            942.0
   MOs        -> AO shells       296.6
   PAOs       -> AO shells       339.9

Calculating integrals (12.1 sec, 2015.545 MB)
Sorting integrals (7.7 sec, 2015.492 MB)
Total time for the integral transformation: 20.2 sec

----------------------------
Local MP2 Energy Calculation
----------------------------
Number of orbital pairs included:   1816
Truncation parameters:
    PAOOverlapThresh    =        1.000e-08
    TCutPNO             =        1.000e-09

Spin component scaling                      .... not used
MP2 energy scaling factor                   .... 1.000

Formation of semicanonical amplitudes.
 10% done.
 20% done.
 30% done.
 40% done.
 50% done.
 60% done.
 70% done.
 80% done.
 90% done.
100% done.

Finished the LMP2 guess in 286.8 sec.

Average number of PAOs per pair        855.5
Average number of nrPAOs per pair      830.2
Average number of PNOs per pair         71.2
Average number of AUX  per pair        2217.7

Semicanonical MP2 energy:                   -3.520402681893 Eh
Semicanonical MP2 energy in PNO basis:      -3.520076793719 Eh

Initial amplitudes guess done. Entering DLPNO-MP2 iteration loop:
   Max. no of iterations          ...  100
   Energy convergence tolerance   ...    1.0e-06 Eh
   Residual convergence tolerance ...    5.0e-06
   Fock matrix cutoff             ...    1.0e-05 Eh
   Max # vectors in DIIS          ...  7
   Start iteration of DIIS        ...  0
   Levelshift                     ...  2.000e-01 Eh
   Damping before turning on DIIS ...  5.000e-01
   Damping after turning on DIIS  ...  0.000e+00

                           *** Turning on DIIS ***
Iter=   0:  ECORR= -3.608880569496  DE=   8.9e-02 RMAX=   1.4e-02
Iter=   1:  ECORR= -3.662287751046  DE=   5.3e-02 RMAX=   4.8e-03
Iter=   2:  ECORR= -3.676788355482  DE=   1.5e-02 RMAX=   2.1e-03
Iter=   3:  ECORR= -3.680687932772  DE=   3.9e-03 RMAX=   9.6e-04
Iter=   4:  ECORR= -3.681002894795  DE=   3.1e-04 RMAX=   3.3e-04
Iter=   5:  ECORR= -3.680977190757  DE=   2.6e-05 RMAX=   1.0e-04
Iter=   6:  ECORR= -3.680971417338  DE=   5.8e-06 RMAX=   2.9e-05
Iter=   7:  ECORR= -3.680977119053  DE=   5.7e-06 RMAX=   7.8e-06
Iter=   8:  ECORR= -3.680978206875  DE=   1.1e-06 RMAX=   2.4e-06
Iter=   9:  ECORR= -3.680978267180  DE=   6.0e-08 RMAX=   8.1e-07 => CONVERGED

Finished the DLPNO-MP2 iterations in 1316.9 sec.

LMP2 correlation energy (all non-screened pairs)      ...     -3.680978267180 Eh
Semicanonical PNO correction to energy                ...     -0.000325888174 Eh
Sum of pair energies estimated for screened out pairs ...     -0.000000001663 Eh
                                                         -----------------------
Total:                                                ...     -3.681304157017 Eh

------------------------------------------------------
 DLPNO-MP2 CORRELATION ENERGY:      -3.681304157017 Eh
------------------------------------------------------

TIMINGS FOR DLPNO-MP2:
Localization                             ...        2.278 sec
Differential overlap integrals           ...        6.779 sec
Prescreening                             ...        0.719 sec
Map setup                                ...        0.046 sec
(ia|v) trafo                             ...       20.221 sec
Semicanonical amplitudes                 ...      232.810 sec
PNO construction                         ...       35.444 sec
DLPNO-MP2 iterations                     ...     1316.908 sec
                                             ----------------
Total time                                       1636.567 sec


---------------------------------------
MP2 TOTAL ENERGY:     -692.810274903 Eh
---------------------------------------

Maximum memory used throughout the entire MP2-calculation: 2197.4 MB

-------------------------   --------------------
FINAL SINGLE POINT ENERGY      -692.810274902715
-------------------------   --------------------


                            ***************************************
                            *     ORCA property calculations      *
                            ***************************************


  WARNING: The energy has been calculated at the MP2 level but the densities
           used in the property calculations are still SCF densities
           MP2 response densities have not been calculated 
           use %mp2 Density relaxed end
           or  %mp2 Density unrelaxed end

                                    ---------------------
                                    Active property flags
                                    ---------------------
   (+) Dipole Moment


------------------------------------------------------------------------------
                       ORCA ELECTRIC PROPERTIES CALCULATION
------------------------------------------------------------------------------

Dipole Moment Calculation                       ... on
Quadrupole Moment Calculation                   ... off
Polarizability Calculation                      ... off
GBWName                                         ... chrysene-lw1x-no-diffuse-on-c_Compound_4.gbw
Electron density                                ... chrysene-lw1x-no-diffuse-on-c_Compound_4.scfp
The origin for moment calculation is the CENTER OF MASS  = ( 0.000000,  0.000000  0.000000)

-------------
DIPOLE MOMENT
-------------
                                X             Y             Z
Electronic contribution:     -0.00000      -0.00000      -0.00000
Nuclear contribution   :     -0.00000       0.00000       0.00000
                        -----------------------------------------
Total Dipole Moment    :     -0.00000      -0.00000      -0.00000
                        -----------------------------------------
Magnitude (a.u.)       :      0.00000
Magnitude (Debye)      :      0.00001



--------------------
Rotational spectrum 
--------------------
 
Rotational constants in cm-1:     0.042228     0.008818     0.007295 
Rotational constants in MHz :  1265.958898   264.365692   218.696153 

 Dipole components along the rotational axes: 
x,y,z [a.u.] :    -0.000000    -0.000003    -0.000003 
x,y,z [Debye]:    -0.000001    -0.000006    -0.000007 

 

Timings for individual modules:

Sum of individual times         ...     1786.425 sec (=  29.774 min)
GTO integral calculation        ...        5.403 sec (=   0.090 min)   0.3 %
Relativistic integrals          ...        7.887 sec (=   0.131 min)   0.4 %
SCF iterations                  ...      135.465 sec (=   2.258 min)   7.6 %
MP2 module                      ...     1637.670 sec (=  27.294 min)  91.7 %
================================================================================

----- Orbital basis set information -----
Your calculation utilizes the basis: def2-SVP
   F. Weigend and R. Ahlrichs, Phys. Chem. Chem. Phys. 7, 3297 (2005).



----------------------------------------------------------------------------------------------
                                        COMPOUND BLOCK                                        
                                     SUMMARY OF VARIABLES                                     
----------------------------------------------------------------------------------------------

Variable Name                                           Value             Evaluation String
-------------                                           -----             -----------------
HF_DZ                                    |            -688.87475314    |  
EC_DZ                                    |              -3.05334420    |  
CC_DZ                                    |              -2.93731551    |  EC_DZ-T_DZ
T_DZ                                     |              -0.11602868    |  
HF_TZ                                    |            -688.90674232    |  
EC_TZ                                    |              -3.18033805    |  
CC_TZ                                    |              -3.01664208    |  EC_TZ-T_TZ
T_TZ                                     |              -0.16369597    |  
HF_CBS                                   |            -688.91159375    |  HF_TZ-(HF_TZ-HF_DZ)*3^-5/(3^-5-2^-5)
CC_CBS                                   |              -3.03023622    |  CC_TZ-(CC_TZ-CC_DZ)*3^-4.7405/(3^-4.7405-2^-4.7405)
T_CBS                                    |              -0.19949199    |  T_TZ-(T_TZ-T_DZ)*3^-2.0879/(3^-2.0879-2^-2.0879)
MP_FC                                    |            -691.72658545    |  
MP_FU                                    |            -692.81027490    |  
MP_CV                                    |              -1.08368945    |  MP_FU-MP_FC
LW1X                                     |            -693.22501141    |  HF_CBS+CC_CBS+T_CBS+MP_CV
                             ****ORCA TERMINATED NORMALLY****
TOTAL RUN TIME: 1 days 0 hours 35 minutes 31 seconds 655 msec
