
                                 *****************
                                 * O   R   C   A *
                                 *****************

                                            #,                                       
                                            ###                                      
                                            ####                                     
                                            #####                                    
                                            ######                                   
                                           ########,                                 
                                     ,,################,,,,,                         
                               ,,#################################,,                 
                          ,,##########################################,,             
                       ,#########################################, ''#####,          
                    ,#############################################,,   '####,        
                  ,##################################################,,,,####,       
                ,###########''''           ''''###############################       
              ,#####''   ,,,,##########,,,,          '''####'''          '####       
            ,##' ,,,,###########################,,,                        '##       
           ' ,,###''''                  '''############,,,                           
         ,,##''                                '''############,,,,        ,,,,,,###''
      ,#''                                            '''#######################'''  
     '                                                          ''''####''''         
             ,#######,   #######,   ,#######,      ##                                
            ,#'     '#,  ##    ##  ,#'     '#,    #''#        ######   ,####,        
            ##       ##  ##   ,#'  ##            #'  '#       #        #'  '#        
            ##       ##  #######   ##           ,######,      #####,   #    #        
            '#,     ,#'  ##    ##  '#,     ,#' ,#      #,         ##   #,  ,#        
             '#######'   ##     ##  '#######'  #'      '#     #####' # '####'        



                  #######################################################
                  #                        -***-                        #
                  #          Department of theory and spectroscopy      #
                  #    Directorship and core code : Frank Neese         #
                  #        Max Planck Institute fuer Kohlenforschung    #
                  #                Kaiser Wilhelm Platz 1               #
                  #                 D-45470 Muelheim/Ruhr               #
                  #                      Germany                        #
                  #                                                     #
                  #                  All rights reserved                #
                  #                        -***-                        #
                  #######################################################


                         Program Version 5.0.1 -  RELEASE  -


 With contributions from (in alphabetic order):
   Daniel Aravena         : Magnetic Suceptibility
   Michael Atanasov       : Ab Initio Ligand Field Theory (pilot matlab implementation)
   Alexander A. Auer      : GIAO ZORA, VPT2 properties, NMR spectrum
   Ute Becker             : Parallelization
   Giovanni Bistoni       : ED, misc. LED, open-shell LED, HFLD
   Martin Brehm           : Molecular dynamics
   Dmytro Bykov           : SCF Hessian
   Vijay G. Chilkuri      : MRCI spin determinant printing, contributions to CSF-ICE
   Dipayan Datta          : RHF DLPNO-CCSD density
   Achintya Kumar Dutta   : EOM-CC, STEOM-CC
   Dmitry Ganyushin       : Spin-Orbit,Spin-Spin,Magnetic field MRCI
   Miquel Garcia          : C-PCM and meta-GGA Hessian, CC/C-PCM, Gaussian charge scheme
   Yang Guo               : DLPNO-NEVPT2, F12-NEVPT2, CIM, IAO-localization
   Andreas Hansen         : Spin unrestricted coupled pair/coupled cluster methods
   Benjamin Helmich-Paris : MC-RPA, TRAH-SCF, COSX integrals
   Lee Huntington         : MR-EOM, pCC
   Robert Izsak           : Overlap fitted RIJCOSX, COSX-SCS-MP3, EOM
   Marcus Kettner         : VPT2
   Christian Kollmar      : KDIIS, OOCD, Brueckner-CCSD(T), CCSD density, CASPT2, CASPT2-K
   Simone Kossmann        : Meta GGA functionals, TD-DFT gradient, OOMP2, MP2 Hessian
   Martin Krupicka        : Initial AUTO-CI
   Lucas Lang             : DCDCAS
   Marvin Lechner         : AUTO-CI (C++ implementation), FIC-MRCC
   Dagmar Lenk            : GEPOL surface, SMD
   Dimitrios Liakos       : Extrapolation schemes; Compound Job, initial MDCI parallelization
   Dimitrios Manganas     : Further ROCIS development; embedding schemes
   Dimitrios Pantazis     : SARC Basis sets
   Anastasios Papadopoulos: AUTO-CI, single reference methods and gradients
   Taras Petrenko         : DFT Hessian,TD-DFT gradient, ASA, ECA, R-Raman, ABS, FL, XAS/XES, NRVS
   Peter Pinski           : DLPNO-MP2, DLPNO-MP2 Gradient
   Christoph Reimann      : Effective Core Potentials
   Marius Retegan         : Local ZFS, SOC
   Christoph Riplinger    : Optimizer, TS searches, QM/MM, DLPNO-CCSD(T), (RO)-DLPNO pert. Triples
   Tobias Risthaus        : Range-separated hybrids, TD-DFT gradient, RPA, STAB
   Michael Roemelt        : Original ROCIS implementation
   Masaaki Saitow         : Open-shell DLPNO-CCSD energy and density
   Barbara Sandhoefer     : DKH picture change effects
   Avijit Sen             : IP-ROCIS
   Kantharuban Sivalingam : CASSCF convergence, NEVPT2, FIC-MRCI
   Bernardo de Souza      : ESD, SOC TD-DFT
   Georgi Stoychev        : AutoAux, RI-MP2 NMR, DLPNO-MP2 response
   Willem Van den Heuvel  : Paramagnetic NMR
   Boris Wezisla          : Elementary symmetry handling
   Frank Wennmohs         : Technical directorship


 We gratefully acknowledge several colleagues who have allowed us to
 interface, adapt or use parts of their codes:
   Stefan Grimme, W. Hujo, H. Kruse, P. Pracht,  : VdW corrections, initial TS optimization,
                  C. Bannwarth, S. Ehlert          DFT functionals, gCP, sTDA/sTD-DF
   Ed Valeev, F. Pavosevic, A. Kumar             : LibInt (2-el integral package), F12 methods
   Garnet Chan, S. Sharma, J. Yang, R. Olivares  : DMRG
   Ulf Ekstrom                                   : XCFun DFT Library
   Mihaly Kallay                                 : mrcc  (arbitrary order and MRCC methods)
   Jiri Pittner, Ondrej Demel                    : Mk-CCSD
   Frank Weinhold                                : gennbo (NPA and NBO analysis)
   Christopher J. Cramer and Donald G. Truhlar   : smd solvation model
   Lars Goerigk                                  : TD-DFT with DH, B97 family of functionals
   V. Asgeirsson, H. Jonsson                     : NEB implementation
   FAccTs GmbH                                   : IRC, NEB, NEB-TS, DLPNO-Multilevel, CI-OPT
                                                   MM, QMMM, 2- and 3-layer-ONIOM, Crystal-QMMM,
                                                   LR-CPCM, SF, NACMEs, symmetry and pop. for TD-DFT,
                                                   nearIR, NL-DFT gradient (VV10), updates on ESD,
                                                   ML-optimized integration grids
   S Lehtola, MJT Oliveira, MAL Marques          : LibXC Library
   Liviu Ungur et al                             : ANISO software


 Your calculation uses the libint2 library for the computation of 2-el integrals
 For citations please refer to: http://libint.valeyev.net

 Your ORCA version has been built with support for libXC version: 5.1.0
 For citations please refer to: https://tddft.org/programs/libxc/

 This ORCA versions uses:
   CBLAS   interface :  Fast vector & matrix operations
   LAPACKE interface :  Fast linear algebra routines
   SCALAPACK package :  Parallel linear algebra routines
   Shared memory     :  Shared parallel matrices
   BLAS/LAPACK       :  OpenBLAS 0.3.15  USE64BITINT DYNAMIC_ARCH NO_AFFINITY SkylakeX SINGLE_THREADED
        Core in use  :  SkylakeX
   Copyright (c) 2011-2014, The OpenBLAS Project




################################################################################


                                COMPOUND JOB MainJOB 
Basename: naphthalene_lw1x-no-diffuse-on-c_Compound_0

################################################################################

================================================================================
                                       INPUT FILE
================================================================================
NAME = naphthalene_lw1x-no-diffuse-on-c_Compound_0.inp
|  1> %Maxcore 4000
|  2>  %Pal nprocs 19 End
|  3>  
|  4>  * xyz 0 1
|  5>  C       -0.000000    2.423179    0.705920 
|  6>  C       -0.000000    1.240048    1.397230 
|  7>  C       -0.000000    0.000000    0.714090 
|  8>  C        0.000000   -0.000000   -0.714090 
|  9>  C        0.000000    1.240048   -1.397230 
| 10>  C       -0.000000    2.423179   -0.705920 
| 11>  H       -0.000000   -1.238354    2.480015 
| 12>  H       -0.000000    3.363735    1.240095 
| 13>  H       -0.000000    1.238354    2.480015 
| 14>  C       -0.000000   -1.240048    1.397230 
| 15>  C       -0.000000   -1.240048   -1.397230 
| 16>  H        0.000000    1.238354   -2.480015 
| 17>  H        0.000000    3.363735   -1.240095 
| 18>  C       -0.000000   -2.423179   -0.705920 
| 19>  C       -0.000000   -2.423179    0.705920 
| 20>  H        0.000000   -1.238354   -2.480015 
| 21>  H       -0.000000   -3.363735   -1.240095 
| 22>  H       -0.000000   -3.363735    1.240095 
| 23>  *
| 24>  
| 25> 
| 26>                          ****END OF INPUT****
================================================================================
================================================================================

----- Orbital basis set information -----
Your calculation utilizes the basis: def2-SVP
   F. Weigend and R. Ahlrichs, Phys. Chem. Chem. Phys. 7, 3297 (2005).



################################################################################


                                COMPOUND JOB  1 
Basename: naphthalene_lw1x-no-diffuse-on-c_Compound_1
NOTE: please remember that MaxCore and PAL settings will be ignored.

################################################################################

================================================================================
                                       INPUT FILE
================================================================================
NAME = naphthalene_lw1x-no-diffuse-on-c_Compound_1.inp
|  1>     ! DefGrid3 RIJCOSX TightPNO DLPNO-CCSD(T1)-F12 MiniPrint NoPop
|  2>     %Basis
|  3>       Basis        "maug-cc-pV(D+d)Z"
|  4>       AuxJ         "AutoAux"
|  5>       AuxC         "AutoAux"
|  6>       CABS         "AutoAux"
|  7>       NewGTO     C "cc-pVDZ" End
|  8>       NewAuxjGTO C "AutoAux" End
|  9>       NewAuxcGTO C "AutoAux" End
| 10>       NewCabsGTO C "AutoAux" End
| 11>     End
| 12> 
| 13>                          ****END OF INPUT****
================================================================================
Warning! AutoAux has not been tested for CABS - use at your own risk!
================================================================================

----- Orbital basis set information -----
Your calculation utilizes the basis: jun-cc-pV(D+d)Z 
  E. Papajak, D. G. Truhlar, J. Chem. Theory Comput. 7, 10-18 (2011).

The basis set includes element-specific modifications.

Your calculation utilizes the basis: cc-pVDZ 
       H, B-Ne : Obtained from the ccRepo (grant-hill.group.shef.ac.uk/ccrepo) Feb. 2017
                 T. H. Dunning, Jr., J. Chem. Phys. 90, 1007 (1989)
            He : Obtained from the ccRepo (grant-hill.group.shef.ac.uk/ccrepo) Feb. 2017
                 D. E. Woon, T. H. Dunning, Jr., J. Chem. Phys. 100, 2975 (1994)
  Li-Be, Na-Mg : Obtained from the ccRepo (grant-hill.group.shef.ac.uk/ccrepo) Feb. 2017
                 B. P. Prascher, D. E. Woon, K. A. Peterson, T. H. Dunning, Jr., A. K. Wilson, Theor. Chem. Acc. 128, 69 (2011)
         Al-Ar : Obtained from the ccRepo (grant-hill.group.shef.ac.uk/ccrepo) Feb. 2017
                 D. E. Woon, T. H. Dunning, Jr., J. Chem. Phys. 98, 1358 (1993)
            Ca : Obtained from the Peterson Research Group Website (tyr0.chem.wsu.edu/~kipeters) Feb. 2017
                 J. Koput, K. A. Peterson, J. Phys. Chem. 106, 9595 (2002)
         Sc-Zn : Obtained from the ccRepo (grant-hill.group.shef.ac.uk/ccrepo) Feb. 2017
                 N. B. Balabanov, K. A. Peterson, J. Chem. Phys. 123, 064107 (2005)
                 N. B. Balabanov, K. A. Peterson, J. Chem. Phys. 125, 074110 (2006)
         Ga-Kr : Obtained from the ccRepo (grant-hill.group.shef.ac.uk/ccrepo) Feb. 2017
                 A. K. Wilson, D. E. Woon, K. A. Peterson, T. H. Dunning, Jr., J. Chem. Phys. 110, 7667 (1999)

----- AuxJ basis set information -----
Your calculation utilizes the AutoAux generation procedure.
  G. L. Stoychev, A. A. Auer, F. Neese, J. Chem. Theory Comput. 13, 554 (2017)

The basis set includes element-specific modifications.

----- AuxC basis set information -----
Your calculation utilizes the AutoAux generation procedure.
  G. L. Stoychev, A. A. Auer, F. Neese, J. Chem. Theory Comput. 13, 554 (2017)

The basis set includes element-specific modifications.

----- CABS information -----
Your calculation utilizes the AutoAux generation procedure.
  G. L. Stoychev, A. A. Auer, F. Neese, J. Chem. Theory Comput. 13, 554 (2017)

The basis set includes element-specific modifications.


                    <<< The CABS basis set will be decontracted >>>

================================================================================
                                        WARNINGS
                       Please study these warnings very carefully!
================================================================================


WARNING: Post HF methods need fully converged wavefunctions
  ===> : Setting SCFConvForced true
         You can overwrite this default with %scf ConvForced false 


WARNING: MDCI localization with Augmented Hessian Foster-Boys
  ===> : Switching off randomization!

INFO   : the flag for use of the SHARK integral package has been found!


                       ****************************
                       * Single Point Calculation *
                       ****************************

---------------------------------
CARTESIAN COORDINATES (ANGSTROEM)
---------------------------------
  C     -0.000000    2.423179    0.705920
  C     -0.000000    1.240048    1.397230
  C     -0.000000    0.000000    0.714090
  C      0.000000   -0.000000   -0.714090
  C      0.000000    1.240048   -1.397230
  C     -0.000000    2.423179   -0.705920
  H     -0.000000   -1.238354    2.480015
  H     -0.000000    3.363735    1.240095
  H     -0.000000    1.238354    2.480015
  C     -0.000000   -1.240048    1.397230
  C     -0.000000   -1.240048   -1.397230
  H      0.000000    1.238354   -2.480015
  H      0.000000    3.363735   -1.240095
  C     -0.000000   -2.423179   -0.705920
  C     -0.000000   -2.423179    0.705920
  H      0.000000   -1.238354   -2.480015
  H     -0.000000   -3.363735   -1.240095
  H     -0.000000   -3.363735    1.240095

----------------------------
CARTESIAN COORDINATES (A.U.)
----------------------------
  NO LB      ZA    FRAG     MASS         X           Y           Z
   0 C     6.0000    0    12.011   -0.000000    4.579145    1.333995
   1 C     6.0000    0    12.011   -0.000000    2.343351    2.640382
   2 C     6.0000    0    12.011   -0.000000    0.000000    1.349435
   3 C     6.0000    0    12.011    0.000000   -0.000000   -1.349435
   4 C     6.0000    0    12.011    0.000000    2.343351   -2.640382
   5 C     6.0000    0    12.011   -0.000000    4.579145   -1.333995
   6 H     1.0000    0     1.008   -0.000000   -2.340150    4.686549
   7 H     1.0000    0     1.008   -0.000000    6.356538    2.343440
   8 H     1.0000    0     1.008   -0.000000    2.340150    4.686549
   9 C     6.0000    0    12.011   -0.000000   -2.343351    2.640382
  10 C     6.0000    0    12.011   -0.000000   -2.343351   -2.640382
  11 H     1.0000    0     1.008    0.000000    2.340150   -4.686549
  12 H     1.0000    0     1.008    0.000000    6.356538   -2.343440
  13 C     6.0000    0    12.011   -0.000000   -4.579145   -1.333995
  14 C     6.0000    0    12.011   -0.000000   -4.579145    1.333995
  15 H     1.0000    0     1.008    0.000000   -2.340150   -4.686549
  16 H     1.0000    0     1.008   -0.000000   -6.356538   -2.343440
  17 H     1.0000    0     1.008   -0.000000   -6.356538    2.343440



           ************************************************************
           *        Program running with 19 parallel MPI-processes    *
           *              working on a common directory               *
           ************************************************************
------------------------------------------------------------------------------
                   ___                                                        
                  /   \      - P O W E R E D   B Y -                         
                 /     \                                                     
                 |  |  |   _    _      __       _____    __    __             
                 |  |  |  | |  | |    /  \     |  _  \  |  |  /  |          
                  \  \/   | |  | |   /    \    | | | |  |  | /  /          
                 / \  \   | |__| |  /  /\  \   | |_| |  |  |/  /          
                |  |  |   |  __  | /  /__\  \  |    /   |      \           
                |  |  |   | |  | | |   __   |  |    \   |  |\   \          
                \     /   | |  | | |  |  |  |  | |\  \  |  | \   \       
                 \___/    |_|  |_| |__|  |__|  |_| \__\ |__|  \__/        
                                                                              
                      - O R C A' S   B I G   F R I E N D -                    
                                      &                                       
                       - I N T E G R A L  F E E D E R -                       
                                                                              
 v1 FN, 2020, v2 2021                                                         
------------------------------------------------------------------------------


Reading SHARK input file naphthalene_lw1x-no-diffuse-on-c_Compound_1.SHARKINP.tmp ... ok
----------------------
SHARK INTEGRAL PACKAGE
----------------------

Number of atoms                             ...     18
Number of basis functions                   ...    180
Number of shells                            ...     84
Maximum angular momentum                    ...      2
Integral batch strategy                     ... SHARK/LIBINT Hybrid
RI-J (if used) integral strategy            ... SPLIT-RIJ (Revised 2003 algorithm where possible)
Printlevel                                  ...      1
Contraction scheme used                     ... SEGMENTED contraction
Coulomb Range Separation                    ... NOT USED
Exchange Range Separation                   ... NOT USED
Finite Nucleus Model                        ... NOT USED
Auxiliary Coulomb fitting basis             ... AVAILABLE
   # of basis functions in Aux-J            ...   1270
   # of shells in Aux-J                     ...    466
   Maximum angular momentum in Aux-J        ...      3
Auxiliary J/K fitting basis                 ... NOT available
Auxiliary Correlation fitting basis         ... AVAILABLE
   # of basis functions in Aux-C            ...   1270
   # of shells in Aux-C                     ...    466
   Maximum angular momentum in Aux-C        ...      3
Auxiliary 'external' fitting basis          ... NOT available
Integral threshold                          ...     1.000000e-10
Primitive cut-off                           ...     1.000000e-11
Primitive pair pre-selection threshold      ...     1.000000e-11

Calculating pre-screening integrals         ... done (  0.1 sec) Dimension = 84
Organizing shell pair data                  ... done (  0.1 sec)
Shell pair information
Total number of shell pairs                 ...      3570
Shell pairs after pre-screening             ...      3410
Total number of primitive shell pairs       ...     34544
Primitive shell pairs kept                  ...     18685
          la=0 lb=0:   1041 shell pairs
          la=1 lb=0:   1220 shell pairs
          la=1 lb=1:    378 shell pairs
          la=2 lb=0:    448 shell pairs
          la=2 lb=1:    268 shell pairs
          la=2 lb=2:     55 shell pairs

Calculating one electron integrals          ... done (  0.0 sec)
Calculating RI/J V-Matrix + Cholesky decomp.... done (  1.1 sec)
Calculating RI/C V-Matrix + Cholesky decomp.... done (  0.5 sec)
Calculating Nuclear repulsion               ... done (  0.0 sec) ENN=    459.067809426244 Eh

SHARK setup successfully completed in   2.5 seconds

Maximum memory used throughout the entire GTOINT-calculation: 13.0 MB


           ************************************************************
           *        Program running with 19 parallel MPI-processes    *
           *              working on a common directory               *
           ************************************************************

Diagonalization of the overlap matrix:
Smallest eigenvalue                        ... 1.851e-04
Time for diagonalization                   ...    0.103 sec
Threshold for overlap eigenvalues          ... 1.000e-08
Number of eigenvalues below threshold      ... 0
Time for construction of square roots      ...    0.081 sec
Total time needed                          ...    0.185 sec

Time for model grid setup =    0.309 sec

Loading Hartree-Fock densities                     ... done
Calculating cut-offs                               ... done
Initializing the effective Hamiltonian             ... done
Setting up the integral package (SHARK)            ... done
Starting the Coulomb interaction                   ... done (   0.4 sec)
Reading the grid                                   ... done
Mapping shells                                     ... done
Starting the XC term evaluation                    ... done (   0.0 sec)
Transforming the Hamiltonian                       ... done (   0.0 sec)
Diagonalizing the Hamiltonian                      ... done (   0.0 sec)
Back transforming the eigenvectors                 ... done (   0.0 sec)
Now organizing SCF variables                       ... done
--------------------
COSX GRID GENERATION
--------------------

GRIDX 1
-------
General Integration Accuracy     IntAcc      ... 4.020
Radial Grid Type                 RadialGrid  ... OptM3 with GC (2021)
Angular Grid (max. ang.)         AngularGrid ... 2 (Lebedev-110)
Angular grid pruning method      GridPruning ... 4 (adaptive)
Weight generation scheme         WeightScheme... Becke
Basis function cutoff            BFCut       ... 1.0000e-10
Integration weight cutoff        WCut        ... 1.0000e-14
Angular grids for H and He will be reduced by one unit
Partially contracted basis set               ... on
Rotationally invariant grid construction     ... off

Total number of grid points                  ...    23870
Total number of batches                      ...      382
Average number of points per batch           ...       62
Average number of grid points per atom       ...     1326
UseSFitting                                  ... on

GRIDX 2
-------
General Integration Accuracy     IntAcc      ... 4.338
Radial Grid Type                 RadialGrid  ... OptM3 with GC (2021)
Angular Grid (max. ang.)         AngularGrid ... 3 (Lebedev-194)
Angular grid pruning method      GridPruning ... 4 (adaptive)
Weight generation scheme         WeightScheme... Becke
Basis function cutoff            BFCut       ... 1.0000e-10
Integration weight cutoff        WCut        ... 1.0000e-14
Angular grids for H and He will be reduced by one unit
Partially contracted basis set               ... on
Rotationally invariant grid construction     ... off

Total number of grid points                  ...    52450
Total number of batches                      ...      828
Average number of points per batch           ...       63
Average number of grid points per atom       ...     2914
UseSFitting                                  ... on

GRIDX 3
-------
General Integration Accuracy     IntAcc      ... 4.871
Radial Grid Type                 RadialGrid  ... OptM3 with GC (2021)
Angular Grid (max. ang.)         AngularGrid ... 4 (Lebedev-302)
Angular grid pruning method      GridPruning ... 4 (adaptive)
Weight generation scheme         WeightScheme... Becke
Basis function cutoff            BFCut       ... 1.0000e-10
Integration weight cutoff        WCut        ... 1.0000e-14
Angular grids for H and He will be reduced by one unit
Partially contracted basis set               ... on
Rotationally invariant grid construction     ... off

Total number of grid points                  ...    99072
Total number of batches                      ...     1554
Average number of points per batch           ...       63
Average number of grid points per atom       ...     5504
UseSFitting                                  ... on

Time for X-Grid setup             =    2.319 sec

 re-compute Schwartz prescreening matrix in partically contracted basis (1) ...done (   0.199 sec)
--------------
SCF ITERATIONS
--------------
ITER       Energy         Delta-E        Max-DP      RMS-DP      [F,P]     Damp
               ***  Starting incremental Fock matrix formation  ***
  0   -383.0516719720   0.000000000000 0.06187496  0.00310140  0.1565536 0.7000
  1   -383.1627713592  -0.111099387200 0.05068421  0.00244799  0.1059016 0.7000
                               ***Turning on DIIS***
  2   -383.2337674170  -0.070996057721 0.12352825  0.00575628  0.0659663 0.0000
  3   -382.7233897556   0.510377661379 0.01047356  0.00060987  0.0225339 0.0000
  4   -383.3584347522  -0.635044996581 0.00465771  0.00027760  0.0055272 0.0000
                      *** Initiating the SOSCF procedure ***
                           *** Shutting down DIIS ***
                      *** Re-Reading the Fockian *** 
                      *** Removing any level shift *** 
ITER      Energy       Delta-E        Grad      Rot      Max-DP    RMS-DP
  5   -383.38194717  -0.0235124174  0.002587  0.002587  0.002413  0.000125
               *** Restarting incremental Fock matrix formation ***
  6   -383.38445584  -0.0025086742  0.001270  0.002510  0.001317  0.000053
  7   -383.38447810  -0.0000222532  0.000746  0.003208  0.001442  0.000052
  8   -383.38448608  -0.0000079838  0.000204  0.000334  0.000273  0.000015
  9   -383.38448685  -0.0000007678  0.000045  0.000082  0.000070  0.000004
                 **** Energy Check signals convergence ****
              ***Rediagonalizing the Fockian in SOSCF/NRSCF***

               *****************************************************
               *                     SUCCESS                       *
               *           SCF CONVERGED AFTER  10 CYCLES          *
               *****************************************************

Old exchange energy                            =    -54.784672884 Eh
New exchange energy                            =    -54.784630200 Eh
Exchange energy change after final integration =      0.000042684 Eh
Total energy after final integration           =   -383.384444224 Eh
Final COS-X integration done in                =     1.367 sec
Total Energy       :         -383.38444422 Eh          -10432.42110 eV
  Last Energy change         ...   -5.9549e-08  Tolerance :   1.0000e-06
  Last MAX-Density change    ...    3.1086e-15  Tolerance :   1.0000e-05
             **** THE GBW FILE WAS UPDATED (naphthalene_lw1x-no-diffuse-on-c_Compound_1.gbw) ****
             **** DENSITY naphthalene_lw1x-no-diffuse-on-c_Compound_1.scfp WAS UPDATED ****
             **** ENERGY FILE WAS UPDATED (naphthalene_lw1x-no-diffuse-on-c_Compound_1.en.tmp) ****
             **** THE GBW FILE WAS UPDATED (naphthalene_lw1x-no-diffuse-on-c_Compound_1.gbw) ****
             **** DENSITY naphthalene_lw1x-no-diffuse-on-c_Compound_1.scfp WAS UPDATED ****
----------------
ORBITAL ENERGIES
----------------

  NO   OCC          E(Eh)            E(eV) 
   0   2.0000     -11.245089      -305.9944 
   1   2.0000     -11.244105      -305.9677 
   2   2.0000     -11.239820      -305.8511 
   3   2.0000     -11.239780      -305.8500 
   4   2.0000     -11.239412      -305.8399 
   5   2.0000     -11.239312      -305.8372 
   6   2.0000     -11.238454      -305.8139 
   7   2.0000     -11.238397      -305.8123 
   8   2.0000     -11.237831      -305.7969 
   9   2.0000     -11.237803      -305.7962 
  10   2.0000      -1.177801       -32.0496 
  11   2.0000      -1.111024       -30.2325 
  12   2.0000      -1.051684       -28.6178 
  13   2.0000      -1.009165       -27.4608 
  14   2.0000      -0.982334       -26.7307 
  15   2.0000      -0.854311       -23.2470 
  16   2.0000      -0.836491       -22.7621 
  17   2.0000      -0.811235       -22.0748 
  18   2.0000      -0.706243       -19.2179 
  19   2.0000      -0.698833       -19.0162 
  20   2.0000      -0.677018       -18.4226 
  21   2.0000      -0.622326       -16.9344 
  22   2.0000      -0.610102       -16.6017 
  23   2.0000      -0.583237       -15.8707 
  24   2.0000      -0.582272       -15.8444 
  25   2.0000      -0.563086       -15.3224 
  26   2.0000      -0.532443       -14.4885 
  27   2.0000      -0.522404       -14.2153 
  28   2.0000      -0.486857       -13.2480 
  29   2.0000      -0.474421       -12.9096 
  30   2.0000      -0.447732       -12.1834 
  31   2.0000      -0.384638       -10.4665 
  32   2.0000      -0.317342        -8.6353 
  33   2.0000      -0.287579        -7.8254 
  34   0.0000       0.090858         2.4724 
  35   0.0000       0.121127         3.2960 
  36   0.0000       0.179469         4.8836 
  37   0.0000       0.184980         5.0336 
  38   0.0000       0.200176         5.4471 
  39   0.0000       0.200269         5.4496 
  40   0.0000       0.235099         6.3974 
  41   0.0000       0.239958         6.5296 
  42   0.0000       0.253966         6.9108 
  43   0.0000       0.275626         7.5002 
  44   0.0000       0.278096         7.5674 
  45   0.0000       0.295668         8.0455 
  46   0.0000       0.389704        10.6044 
  47   0.0000       0.398235        10.8365 
  48   0.0000       0.438014        11.9190 
  49   0.0000       0.446251        12.1431 
  50   0.0000       0.468787        12.7563 
  51   0.0000       0.469321        12.7709 
  52   0.0000       0.473835        12.8937 
  53   0.0000       0.513180        13.9643 
  54   0.0000       0.579332        15.7644 
  55   0.0000       0.596954        16.2439 
  56   0.0000       0.653311        17.7775 
  57   0.0000       0.666965        18.1490 
  58   0.0000       0.675527        18.3820 
  59   0.0000       0.679003        18.4766 
  60   0.0000       0.689732        18.7686 
  61   0.0000       0.697236        18.9727 
  62   0.0000       0.708421        19.2771 
  63   0.0000       0.709984        19.3197 
  64   0.0000       0.725963        19.7545 
  65   0.0000       0.737141        20.0586 
  66   0.0000       0.756029        20.5726 
  67   0.0000       0.759556        20.6686 
  68   0.0000       0.759599        20.6697 
  69   0.0000       0.759866        20.6770 
  70   0.0000       0.761155        20.7121 
  71   0.0000       0.761818        20.7301 
  72   0.0000       0.770813        20.9749 
  73   0.0000       0.826083        22.4788 
  74   0.0000       0.839023        22.8310 
  75   0.0000       0.841416        22.8961 
  76   0.0000       0.862703        23.4753 
  77   0.0000       0.864251        23.5175 
  78   0.0000       0.897728        24.4284 
  79   0.0000       0.905541        24.6410 
  80   0.0000       0.913080        24.8462 
  81   0.0000       0.917016        24.9533 
  82   0.0000       0.964473        26.2446 
  83   0.0000       0.974177        26.5087 
  84   0.0000       0.979626        26.6570 
  85   0.0000       0.990652        26.9570 
  86   0.0000       1.039173        28.2773 
  87   0.0000       1.106202        30.1013 
  88   0.0000       1.109653        30.1952 
  89   0.0000       1.115946        30.3664 
  90   0.0000       1.128083        30.6967 
  91   0.0000       1.129168        30.7262 
  92   0.0000       1.136988        30.9390 
  93   0.0000       1.174604        31.9626 
  94   0.0000       1.178289        32.0629 
  95   0.0000       1.195766        32.5385 
  96   0.0000       1.198900        32.6237 
  97   0.0000       1.207813        32.8663 
  98   0.0000       1.218173        33.1482 
  99   0.0000       1.227093        33.3909 
 100   0.0000       1.263462        34.3805 
 101   0.0000       1.277790        34.7704 
 102   0.0000       1.281067        34.8596 
 103   0.0000       1.301971        35.4284 
 104   0.0000       1.330036        36.1921 
 105   0.0000       1.342115        36.5208 
 106   0.0000       1.343606        36.5614 
 107   0.0000       1.363075        37.0912 
 108   0.0000       1.387278        37.7498 
 109   0.0000       1.500780        40.8383 
 110   0.0000       1.541207        41.9384 
 111   0.0000       1.546618        42.0856 
 112   0.0000       1.591943        43.3190 
 113   0.0000       1.638789        44.5937 
 114   0.0000       1.666228        45.3404 
 115   0.0000       1.669616        45.4326 
 116   0.0000       1.710060        46.5331 
 117   0.0000       1.742406        47.4133 
 118   0.0000       1.744047        47.4579 
 119   0.0000       1.757592        47.8265 
 120   0.0000       1.782241        48.4972 
 121   0.0000       1.800768        49.0014 
 122   0.0000       1.843047        50.1519 
 123   0.0000       1.850285        50.3488 
 124   0.0000       1.878338        51.1122 
 125   0.0000       1.894529        51.5528 
 126   0.0000       1.904521        51.8247 
 127   0.0000       1.909299        51.9547 
 128   0.0000       1.926868        52.4327 
 129   0.0000       1.930330        52.5270 
 130   0.0000       1.935434        52.6658 
 131   0.0000       1.964066        53.4449 
 132   0.0000       1.966514        53.5116 
 133   0.0000       1.967760        53.5455 
 134   0.0000       1.997211        54.3469 
 135   0.0000       2.003283        54.5121 
 136   0.0000       2.018868        54.9362 
 137   0.0000       2.052544        55.8526 
 138   0.0000       2.070890        56.3518 
 139   0.0000       2.106174        57.3119 
 140   0.0000       2.114642        57.5423 
 141   0.0000       2.116558        57.5945 
 142   0.0000       2.128425        57.9174 
 143   0.0000       2.131726        58.0072 
 144   0.0000       2.143685        58.3326 
 145   0.0000       2.177985        59.2660 
 146   0.0000       2.181200        59.3535 
 147   0.0000       2.186233        59.4904 
 148   0.0000       2.190375        59.6031 
 149   0.0000       2.201319        59.9009 
 150   0.0000       2.251622        61.2698 
 151   0.0000       2.309238        62.8376 
 152   0.0000       2.326354        63.3033 
 153   0.0000       2.326479        63.3067 
 154   0.0000       2.369691        64.4826 
 155   0.0000       2.370588        64.5070 
 156   0.0000       2.392288        65.0975 
 157   0.0000       2.406522        65.4848 
 158   0.0000       2.494849        67.8883 
 159   0.0000       2.518190        68.5234 
 160   0.0000       2.598548        70.7101 
 161   0.0000       2.620773        71.3149 
 162   0.0000       2.628346        71.5209 
 163   0.0000       2.732875        74.3653 
 164   0.0000       2.743453        74.6532 
 165   0.0000       2.753021        74.9135 
 166   0.0000       2.782898        75.7265 
 167   0.0000       2.841055        77.3090 
 168   0.0000       2.855176        77.6933 
 169   0.0000       2.940671        80.0197 
 170   0.0000       3.032076        82.5070 
 171   0.0000       3.041191        82.7550 
 172   0.0000       3.048428        82.9519 
 173   0.0000       3.051519        83.0361 
 174   0.0000       3.171902        86.3118 
 175   0.0000       3.197069        86.9967 
 176   0.0000       3.233096        87.9770 
 177   0.0000       3.341002        90.9133 
 178   0.0000       3.861787       105.0846 
 179   0.0000       3.995579       108.7252 
Total SCF time: 0 days 0 hours 0 min 27 sec 

Maximum memory used throughout the entire SCF-calculation: 62.4 MB


           ************************************************************
           *        Program running with 19 parallel MPI-processes    *
           *              working on a common directory               *
           ************************************************************


------------------------------------------------------------------------------- 
                              ORCA-MATRIX DRIVEN CI                            
------------------------------------------------------------------------------- 


Wavefunction type
-----------------
Correlation treatment                      ...      CCSD     
Single excitations                         ... ON
Orbital optimization                       ... OFF
Calculation of Z vector                    ... OFF
Calculation of Brueckner orbitals          ... OFF
Perturbative triple excitations            ... ON
Calculation of F12 correction              ... ON
   Using RI for F12 correction             ... ON
   GSO occupation number cut-off           ... 0.000e+00
Frozen core treatment                      ... chemical core (20 el)
Reference Wavefunction                     ... RHF
  Internal Orbitals:    10 ...   33 ( 24 MO's/ 48 electrons)
  Virtual  Orbitals:    34 ...  179 (146 MO's              )
Number of AO's                             ...    180
Number of electrons                        ...     68
Number of correlated electrons             ...     48

Algorithmic settings
--------------------
Integral transformation                    ... All integrals via the RI transformation
K(C) Formation                             ... RI-DLPNO
   PNO-Integral Storage                    ... ON DISK
   PNO occupation number cut-off           ... 1.000e-07
   Singles PNO occupation number cut-off   ... 3.000e-09
   PNO Mulliken prescreening cut-off       ... 1.000e-03
   Domain cut-off (Mulliken population)    ... 1.000e-03
   PNO Normalization                       ...    1
Maximum number of iterations               ...        50
Convergence tolerance (max. residuum)      ... 2.500e-05
Level shift for amplitude update           ... 2.000e-01
Maximum number of DIIS vectors             ...         7
DIIS turned on at iteration                ...         0
Damping before turning on DIIS             ...     0.500
Damping after turning on DIIS              ...     0.000
Pair specific amplitude update             ... OFF
Natural orbital iterations                 ... OFF
Perturbative natural orbital generation    ... OFF
Printlevel                                 ... 2

Singles Fock matrix elements calculated using PNOs.

Memory handling:
----------------
Maximum memory for working arrays          ...   4000 MB
Data storage in matrix containers          ... UNCOMPRESSED
Data type for integral storage             ... DOUBLE
In-Core Storage of quantities:
   Amplitudes+Sigma Vector      ... NO
   J+K operators                ... NO
   DIIS vectors                 ... NO
   3-external integrals         ... NO
   4-external integrals         ... NO

Localization treatment:
-----------------------
Localization option                        ...    6
Localization threshhold                    ... -1.0e+00
Using relative localization threshhold     ... 1.0e-08
Neglect threshold for strong pairs         ... 1.000e-05 Eh
Prescreening threshold for very weak pairs ... 1.000e-07 Eh

Initializing the integral package          ... done
Localizing the valence orbitals
------------------------------------------------------------------------------
                           ORCA ORBITAL LOCALIZATION
------------------------------------------------------------------------------

Input orbitals are from                  ... naphthalene_lw1x-no-diffuse-on-c_Compound_1.gbw
Output orbitals are to                   ... naphthalene_lw1x-no-diffuse-on-c_Compound_1.loc
Max. number of iterations                ... 128
Localizations seeded randomly            ... off
Convergence tolerance                    ... 1.000e-06
Using relative localization threshhold   ... 1.000e-08
Treshold for strong local MOs            ... 9.500e-01
Treshold for bond MOs                    ... 8.500e-01
Operator                                 ... 0
Orbital range for localization           ... 10 to 33
Localization criterion                   ... FOSTER-BOYS (AUGMENTED HESSIAN)
Doing the dipole integrals     ... o.k.
Initial value of the localization sum :   390.598644
ITERATION   0 : L=  414.3710375049 DL=  2.38e+01 (AVERGE_DL)=    0.2934823005 
ITERATION   1 : L=  421.6510482936 DL=  7.28e+00 (AVERGE_DL)=    0.1624095154 
ITERATION   2 : L=  422.3484365878 DL=  6.97e-01 (AVERGE_DL)=    0.0502669790 
ITERATION   3 : L=  422.4053953436 DL=  5.70e-02 (AVERGE_DL)=    0.0143656641 
ITERATION   4 : L=  422.4090734528 DL=  3.68e-03 (AVERGE_DL)=    0.0036505455 
ITERATION   5 : L=  422.4093003665 DL=  2.27e-04 (AVERGE_DL)=    0.0009067253 
ITERATION   6 : L=  422.4093149836 DL=  1.46e-05 (AVERGE_DL)=    0.0002301316 
ITERATION   7 : L=  422.4093159611 DL=  9.78e-07 (AVERGE_DL)=    0.0000595128 
LOCALIZATION SUM CONVERGED

------------------------------------------------------
AUGMENTED HESSIAN OPTIMIZATION OF FOSTER-BOYS ORBITALS
------------------------------------------------------

Spin operator:           0
Orbital window:          10 to 33
Number of iterations:    128
Gradient tolerance:      1.000e-06
Number of pairs:         276
Davidson threshold:      2000
Diagonalization method:  LAPACK
Iter:    0   L: 422.4093159611   Grad. norm: 3.123468e-03
   *** Likely close to a maximum now. ***
       Augmented Hessian eigenvalues:  1.66e-07 -3.83e+00 -4.06e+00 -4.14e+00 ... 
Iter:    1   L: 422.4093160440   Grad. norm: 5.765308e-08
LOCALIZATION HAS CONVERGED.

Eigenvalues of the Hessian:
  0 -3.833e+00
  1 -4.057e+00
  2 -4.138e+00
  3 -4.259e+00
  4 -4.260e+00
  5 -1.314e+01
  6 -1.367e+01
  7 -1.396e+01
  8 -1.414e+01
  9 -1.476e+01
    ...


------------------------------------------------------------------------------- 
                    LOCALIZED MOLECULAR ORBITAL COMPOSITIONS                   
------------------------------------------------------------------------------- 

The Mulliken populations for each LMO on each atom are computed
The LMO`s will be ordered according to atom index and type
  (A) Strongly localized MO`s have populations of >=0.950 on one atom
  (B) Two center bond orbitals have populations of >=0.850 on two atoms
  (C) Other MO`s are considered to be `delocalized`

FOUND  -   0 strongly local MO`s
       -  24 two center bond MO`s
       -   0 significantly delocalized MO`s

Bond-like localized orbitals:
MO  33:  17H  -   0.501074  and  14C  -   0.506463
MO  32:  16H  -   0.501074  and  13C  -   0.506462
MO  31:  15H  -   0.504640  and  10C  -   0.500657
MO  30:  14C  -   0.515587  and  13C  -   0.515587
MO  29:  14C  -   0.478964  and   9C  -   0.480939
MO  28:  14C  -   0.478964  and   9C  -   0.480939
MO  27:  13C  -   0.478964  and  10C  -   0.480939
MO  26:  13C  -   0.478964  and  10C  -   0.480939
MO  25:  12H  -   0.501074  and   5C  -   0.506464
MO  24:  11H  -   0.504640  and   4C  -   0.500657
MO  23:  10C  -   0.506649  and   3C  -   0.530422
MO  22:   9C  -   0.500656  and   6H  -   0.504640
MO  21:   9C  -   0.506652  and   2C  -   0.530420
MO  20:   8H  -   0.504640  and   1C  -   0.500658
MO  19:   7H  -   0.501073  and   0C  -   0.506461
MO  18:   5C  -   0.478963  and   4C  -   0.480940
MO  17:   5C  -   0.478964  and   4C  -   0.480939
MO  16:   5C  -   0.515586  and   0C  -   0.515588
MO  15:   4C  -   0.506650  and   3C  -   0.530421
MO  14:   3C  -   0.450929  and   2C  -   0.450929
MO  13:   3C  -   0.450929  and   2C  -   0.450929
MO  12:   2C  -   0.530420  and   1C  -   0.506651
MO  11:   1C  -   0.480939  and   0C  -   0.478964
MO  10:   1C  -   0.480938  and   0C  -   0.478965
Localized MO's were stored in: naphthalene_lw1x-no-diffuse-on-c_Compound_1.loc

Localizing the core orbitals
------------------------------------------------------------------------------
                           ORCA ORBITAL LOCALIZATION
------------------------------------------------------------------------------

Input orbitals are from                  ... naphthalene_lw1x-no-diffuse-on-c_Compound_1.loc
Output orbitals are to                   ... naphthalene_lw1x-no-diffuse-on-c_Compound_1.loc
Max. number of iterations                ... 128
Localizations seeded randomly            ... off
Convergence tolerance                    ... 1.000e-06
Using relative localization threshhold   ... 1.000e-08
Treshold for strong local MOs            ... 9.500e-01
Treshold for bond MOs                    ... 8.500e-01
Operator                                 ... 0
Orbital range for localization           ... 0 to 9
Localization criterion                   ... FOSTER-BOYS (AUGMENTED HESSIAN)
Doing the dipole integrals     ... o.k.
Initial value of the localization sum :   144.485645
ITERATION   0 : L=  144.4856632744 DL=  1.85e-05 (AVERGE_DL)=    0.0006411047 
ITERATION   1 : L=  144.4856632744 DL=  0.00e+00 (AVERGE_DL)=    0.0000000000 
LOCALIZATION SUM CONVERGED

------------------------------------------------------
AUGMENTED HESSIAN OPTIMIZATION OF FOSTER-BOYS ORBITALS
------------------------------------------------------

Spin operator:           0
Orbital window:          0 to 9
Number of iterations:    128
Gradient tolerance:      1.000e-06
Number of pairs:         45
Davidson threshold:      2000
Diagonalization method:  LAPACK
Iter:    0   L: 144.4856632744   Grad. norm: 9.956095e-06
   *** Likely close to a maximum now. ***
       Augmented Hessian eigenvalues:  9.51e-13 -2.68e+01 -2.68e+01 -2.68e+01 ... 
Iter:    1   L: 144.4856632744   Grad. norm: 7.049479e-19
LOCALIZATION HAS CONVERGED.

Eigenvalues of the Hessian:
  0 -2.682e+01
  1 -2.682e+01
  2 -2.682e+01
  3 -2.682e+01
  4 -2.847e+01
  5 -2.847e+01
  6 -2.863e+01
  7 -2.863e+01
  8 -2.863e+01
  9 -2.863e+01
    ...


------------------------------------------------------------------------------- 
                    LOCALIZED MOLECULAR ORBITAL COMPOSITIONS                   
------------------------------------------------------------------------------- 

The Mulliken populations for each LMO on each atom are computed
The LMO`s will be ordered according to atom index and type
  (A) Strongly localized MO`s have populations of >=0.950 on one atom
  (B) Two center bond orbitals have populations of >=0.850 on two atoms
  (C) Other MO`s are considered to be `delocalized`

FOUND  -  10 strongly local MO`s
       -   0 two center bond MO`s
       -   0 significantly delocalized MO`s

Rather strongly localized orbitals:
MO   9:  14C  -   0.999199
MO   8:  13C  -   0.999199
MO   7:  10C  -   0.998910
MO   6:   9C  -   0.998911
MO   5:   5C  -   0.999199
MO   4:   4C  -   0.998911
MO   3:   3C  -   0.998648
MO   2:   2C  -   0.998648
MO   1:   1C  -   0.998910
MO   0:   0C  -   0.999199
Localized MO's were stored in: naphthalene_lw1x-no-diffuse-on-c_Compound_1.loc

Warning: reference  - re-canonicalizations have been set to INT 1 VIRT 1
Warning: internal orbitals are localized - no re-canonicalization of internal orbitals
Warning: UsePNO is turned on - no re-canonicalization of internal and virtual orbitals

--------------------------
CLOSED-SHELL FOCK OPERATOR
--------------------------

Restoring SHARK [2] ... ok
Entering RIJCOSX section for the Fock matrix
Trying to retrieve the full J-matrix              ... done
Updating the Fock matrix                          ... done
Making the frozen core Coulomb matrix             ... SHARKdone
Retrieving the full K-matrix                      ... done
Calculating the frozen core K-matrix              ... done
Updating the Fock matrix                          ... done
Time needed for Fock operator              ...            2.599 sec
Reference energy                           ...   -383.384453364

------------------------------
Initializing F12 data
------------------------------

Mapping basis set                  ... done
Dimension of the orbital basis set  = 180
Dimension of the CABS basis set     = 1270
Dimension of the AUX basis set      = 1270
Threshold for CABS orthogonalization = 1.000e-08
Will use an exponential correlation factor -Exp(-gamma r12)/gamma (gamma= 1.200) fit to 6 Gaussians 
Correlation factor:   
  NGauss  :          6      
  Gaussian expansion: 
    a(0)=     0.275538291  d(0)=    -0.219608291 
    a(1)=     1.140545861  d(1)=    -0.254494187 
    a(2)=     3.958256986  d(2)=    -0.154545985 
    a(3)=    13.126859124  d(3)=    -0.093273119 
    a(4)=    49.287410844  d(4)=    -0.057916694 
    a(5)=   272.920095267  d(5)=    -0.035942168 
Calculating one-electron matrices                       ... done (      0.3 sec)
Calculating pre-screening matrices:                     ...
       .... 1/r12 done          (      0.3 sec)
       .... f12/r12 done        (      0.3 sec)
       .... f12 done            (      0.2 sec)
       .... f12^2 done          (      0.6 sec)
       .... [f12,[T1,f12]] done (      0.7 sec)
                                                        ... done (      2.0 sec)
Making CABS spaces                                      ... done (      0.4 sec)
Calculating 2-index 2-center F12 integrals              ... 
Two index explicit correlation integrals  op=0          ... done (      0.1 sec) 
Two index explicit correlation integrals  op=1          ... done (      0.1 sec) 
Two index explicit correlation integrals  op=2          ... done (      0.1 sec) 
Two index explicit correlation integrals  op=3          ... done (      0.1 sec) 
Two index explicit correlation integrals  op=4          ... done (      0.1 sec) 
                                                            done (      0.4 sec)

--------------
DLPNO SETTINGS (2015 fully linear scaling implementation)
--------------

TCutMKN:           1.000e-03
TCutPAO:           1.000e-03
TCutPNO:           1.000e-07
TCutPNOSingles:    3.000e-09
TCutEN:            9.700e-01
TCutPAOExt:        1.000e-01
TCutPairs:         1.000e-05
TCutPre:           1.000e-07
TCutOSV:           1.000e-06
TCutDOij:          1.000e-05
TCutDO:            5.000e-03
TCutC:             1.000e-04
TCutCPAO:          1.000e-03
TCutCMO:           1.000e-03
TScaleDOMP2PreScr: 2.000e+00
TScaleMKNMP2PreScr:1.000e+01
TScalePNOMP2PreScr:1.000e+00
PAO overlap thresh 1.000e-08
Using PNOs for Singles Fock computation
Use new domains
Use fully linear algorithm
TCutTNO:           1.000e-09
TCutMP2Pairs:      1.000e-06
TCutDOStrong:      2.000e-03
TCutMKNStrong:     1.000e-02
TCutMKNWeak:       1.000e-01
TCutDOWeak:        4.000e-03
NTCutTNO:          1

--------------------------
Mulliken population of the LMOs            ... ok
Performing proximity check                 ... No problems found
Calculating differential overlap integrals ... ok

--------------------------
ELECTRON PAIR PRESCREENING
--------------------------

Dipole-based pair screening          .... used

   TCutDOij = 1.000000e-05
   TCutPre  = 1.000000e-07
   .... Finished loop over pairs
Total time spent in the prescreening                  ...     0.031 sec
sum of pair energies estimated for screened out pairs ...       0.000000000000 Eh
Thresholds for map construction and integral transformation for crude MP2:
   TCutMKN                    ...     1.0e-02
   TCutDO                     ...     1.0e-02
   TCutPairs                  ...     1.0e-05
   TCutPNO_CrudeMP2           ...     1.0e-07
   TCutPNOSingles_CrudeMP2    ...     3.0e-09
--------------------------------
LOCAL RI TRANSFORMATION (IAVPAO)
--------------------------------

Orbital window:      10 to 33
Number of PAOs:     180
Basis functions:    180 (84 shells)
Aux. functions:    1270 (466 shells)
Use SHARK:           on

Processing maps (0.0 sec)
Average map sizes:
   Aux shells -> MOs              24.0
   Aux shells -> PAOs            180.0
   MOs        -> AO shells        82.0
   PAOs       -> AO shells        84.0

Calculating integrals (0.7 sec, 41.872 MB)
Sorting integrals (0.2 sec, 41.858 MB)
Total time for the integral transformation: 1.2 sec
--------------------------------
INITIAL GUESS AND PNO GENERATION
--------------------------------

PNO truncation parameters                   .... 
    PAOOverlapThresh   =        1.000e-08

    TCutPairs          =        1.000e-05
    TCutPNO            =        1.000e-07
    TCutPNOSingles     =        3.000e-09
    TCutMP2Pairs       =        1.000e-06
    TCutMKN            =        1.000e-02
    TCutDO             =        1.000e-02

Pair selection                          .... not used
Type of local MP2 treatment                 .... semi-local MP2
Strategy for PNO selection                  .... occupation number selection
Pair density normalization                  .... MP2 norm
Spin component scaling                      .... not used

   .... Finished loop over pairs
Making pair pair interaction lists          ... done

                       ===========================
                        291 OF  300 PAIRS ARE KEPT CCSD PAIRS
                          9 OF  300 PAIRS ARE KEPT MP2 PAIRS FOR (T)
                          0 OF  300 PAIRS ARE SKIPPED
                       ===========================

Total time spent in the initial guess                 ...     0.940 sec
SL-MP2 correlation energy (all non-screened pairs)    ...      -1.225136972001 Eh

Initial PNO correlation energy                        ...      -1.224335241021 Eh
sum of pair energies prescreened and skipped MP2 pairs...       0.000000000000 Eh
sum of pair energies of crude MP2 skipped pairs only  ...       0.000000000000 Eh
sum of MP2 pair energies for pairs that were not kept ...      -0.000050008836 Eh
sum of PNO error estimates for the kept pairs         ...      -0.000751722144 Eh
                                                          --------------------
sum of all corrections                                         -0.000801730980
Initial total correlation energy                               -1.225136972001
Thresholds for map construction and integral transformation for fine MP2 and CCSD(T) calculation:
   TCutMKN   ...     1.0e-03
   TCutDO    ...     5.0e-03
   TCutPairs ...     1.0e-05
   TCutCMO   ...     1.0e-03
   TCutCPAO  ...     1.0e-03

Thresholds for map construction and integral transformation for strong Triples:
   TCutMKN   ...     1.0e-02
   TCutDO    ...     1.0e-02
   TCutCMO   ...     1.0e-03
   TCutCPAO  ...     1.0e-03

Thresholds for map construction and integral transformation for weak Triples:
   TCutMKN   ...     1.0e-01
   TCutDO    ...     2.0e-02
   TCutCMO   ...     1.0e-03
   TCutCPAO  ...     1.0e-03

--------------------------------
LOCAL RI TRANSFORMATION (IAVPAO)
--------------------------------

Orbital window:      10 to 33
Number of PAOs:     180
Basis functions:    180 (84 shells)
Aux. functions:    1270 (466 shells)
Use SHARK:           on

Processing maps (0.0 sec)
Average map sizes:
   Aux shells -> MOs              24.0
   Aux shells -> PAOs            180.0
   MOs        -> AO shells        82.0
   PAOs       -> AO shells        84.0

Calculating integrals (0.6 sec, 41.872 MB)
Sorting integrals (0.2 sec, 41.858 MB)
Total time for the integral transformation: 1.1 sec
--------------------------------
INITIAL GUESS AND PNO GENERATION
--------------------------------

PNO truncation parameters                   .... 
    ScaleTCutPNO       =        1.000e-02
    PAOOverlapThresh   =        1.000e-08

    TCutPairs          =        1.000e-05
    TCutPNO            =        1.000e-07
    TCutPNOSingles     =        3.000e-09
    TCutMP2Pairs       =        1.000e-06
    TCutMKN            =        1.000e-03
    TCutDO             =        5.000e-03

Pair selection                          .... not used
Type of local MP2 treatment                 .... full local PMP2
Strategy for PNO selection                  .... occupation number selection
Pair density normalization                  .... MP2 norm
Spin component scaling                      .... not used

PASS-1: Formation of initial guess LMP2 amplitudes
Initial amplitudes guess done. Entering LMP2 iteration loop:
   Max. no of iterations          ...  50
   Energy convergence tolerance   ...    1.0e-07
   Residual convergence tolerance ...    5.0e-07
   Fock matrix cutoff             ...    1.0e-05 Eh
   DIIS convergence acceleration parameters:
        Max # vectors in DIIS     ... 7
        Start iteration of DIIS   ... 0
        Levelshift                ... 2.000e-01
        Damping factor 1          ... 5.000e-01
        Damping factor 2          ... 1.000e+00
   L-MP2 PNO cut-off              ...   1.0e-09
   L-MP2 PNO cut-off (core)       ...   1.0e-11
                           *** Turning on DIIS ***
LMP2-Iter=   0:  ELMP2= -1.266316160772  DE=   4.1e-02 RMAX=   8.7e-03
LMP2-Iter=   1:  ELMP2= -1.287472514531  DE=   2.1e-02 RMAX=   3.8e-03
LMP2-Iter=   2:  ELMP2= -1.292984987439  DE=   5.5e-03 RMAX=   1.6e-03
LMP2-Iter=   3:  ELMP2= -1.293712740436  DE=   7.3e-04 RMAX=   5.4e-04
LMP2-Iter=   4:  ELMP2= -1.293718073195  DE=   5.3e-06 RMAX=   1.5e-04
LMP2-Iter=   5:  ELMP2= -1.293719243920  DE=   1.2e-06 RMAX=   3.7e-05
LMP2-Iter=   6:  ELMP2= -1.293721953756  DE=   2.7e-06 RMAX=   1.2e-05
LMP2-Iter=   7:  ELMP2= -1.293722813679  DE=   8.6e-07 RMAX=   3.2e-06
LMP2-Iter=   8:  ELMP2= -1.293722787359  DE=   2.6e-08 RMAX=   1.0e-06
LMP2-Iter=   9:  ELMP2= -1.293722691341  DE=   9.6e-08 RMAX=   3.4e-07
LMP2-Iter=  10:  ELMP2= -1.293722617349  DE=   7.4e-08 RMAX=   1.1e-07
LMP2-Iter=  11:  ELMP2= -1.293722589582  DE=   2.8e-08 RMAX=   3.4e-08 => CONVERGED
PASS-2: Formation of Pair natural orbitals
   .... Finished loop over pairs

 PNO Occupation Number Statistics: 
  | Av. % of trace(Dij) retained        ...  99.550535575968
  | sigma^2 in % of trace(Dij) retained ...   7.13e-01
  | Av. % of trace(Di) retained         ...  99.999801572299
  | sigma^2 in % of trace(Di) retained  ...   2.93e-09
 Distributions of % trace(Dij) recovered:
  |       >= 99.9  ...   145 ( 48.3 % of all pairs)
  |   [90.0, 99.0) ...    35 ( 11.7 % of all pairs)
  |   [99.0, 99.9) ...   120 ( 40.0 % of all pairs)
 Distributions of % trace(Di) recovered :
  |       >= 99.9  ...    24 (100.0 % of all I-pairs )

Making pair pair interaction lists          ... done

                       ===========================
                        291 OF  300 PAIRS ARE KEPT
                       ===========================

Total time spent in the initial guess                 ...   158.248 sec
L-MP2 correlation energy (all non-screened pairs)     ...      -1.293722589582 Eh
L-MP2 PNO error correction                            ...      -0.000011025583 Eh
                                                          --------------------
Initial total L-MP2 energy (non-screened pairs)       ...      -1.293733615165 Eh

Initial PNO correlation energy                        ...      -1.293021086688 Eh
sum of pair energies estimated for screened out pairs ...       0.000000000000 Eh
sum of MP2 pair energies for pairs that were not kept ...      -0.000062585086 Eh
sum of PNO error estimates for the kept pairs         ...      -0.000668205451 Eh
                                                          --------------------
sum of all corrections                                         -0.000730790537
Initial total correlation energy                               -1.293751877224
Thresholds for map construction and integral transformation for fine MP2 and CCSD(T) calculation:
   TCutMKN   ...     1.0e-03
   TCutDO    ...     5.0e-03
   TCutPairs ...     1.0e-05
   TCutCMO   ...     1.0e-03
   TCutCPAO  ...     1.0e-03

Number of pairs in F12 (TCutDOF12 = 3.000e-04)        ...     291

Time for aux screen maps:            0.004
Time for maps after fine MP2:            0.019
-----------------------------
LOCAL RI TRANSFORMATION (IJV)
-----------------------------

Orbital window:      10 to 33
Basis functions:    180 (84 shells)
Aux. functions:    1270 (466 shells)
Use SHARK:           on

Processing maps (0.0 sec)
Average map sizes:
   Aux shells -> MOs(i)           24.0
   Aux shells -> MOs(j)           24.0
   MOs        -> AO shells        82.0

Calculating integrals (0.4 sec, 5.596 MB)
Sorting integrals (0.1 sec, 5.581 MB)
Total time for the integral transformation: 0.6 sec
--------------------------------
LOCAL RI TRANSFORMATION (VABPAO)
--------------------------------

Number of PAOs:     180
Basis functions:    180 (84 shells)
Aux. functions:    1270 (466 shells)
Use SHARK:           on

Processing maps (0.0 sec)
Average map sizes:
   Aux shells -> PAOs            180.0
   PAOs       -> AO shells        84.0

Calculating integrals (0.5 sec, 313.949 MB)
Finished


-------------------------------------
Pair Pair Term precalculation with     
RI-(ij|mn) and (im|jn) transformation  
ON THE FLY                             
-------------------------------------

   IBatch   1 (of   3)              ... done (   13.752 sec)
   IBatch   2 (of   3)              ... done (   21.481 sec)
   IBatch   3 (of   3)              ... done (   20.390 sec)
Total EXT                           ...          55.623 sec

---------------------
RI-PNO TRANSFORMATION
---------------------

Total Number of PNOs                   ... 10850
Average number of PNOs per pair        ...    37
Maximal number of PNOs per pair        ...    80
   #pairs with  1 -  5 PNOs   :    0
   #pairs with  6 - 10 PNOs   :   12
   #pairs with 11 - 15 PNOs   :    4
   #pairs with 16 - 20 PNOs   :   12
   #pairs with 21 - 25 PNOs   :   54
   #pairs with 26 - 30 PNOs   :   12
   #pairs with 31 - 35 PNOs   :   32
   #pairs with 36 - 40 PNOs   :   42
   #pairs with 41 - 45 PNOs   :   44
   #pairs with 46 - 50 PNOs   :   40
   #pairs with 51 - 55 PNOs   :    8
   #pairs with 56 - 60 PNOs   :    4
   #pairs with 61 - 65 PNOs   :   10
   #pairs with 66 - 70 PNOs   :   16
   #pairs with 76 - 80 PNOs   :    1

Generation of (ij|ab)[P] integrals            ... on
Generation of (ia|bc)[P],(ja|bc)[P] integrals ... on
Storage of 3 and 4 external integrals         ... on
Generation of ALL (ka|bc)[P] integrals        ... on
Keep RI integrals in memory                   ... off

Ibatch:  1 (of  1)
Starting 2-4 index PNO integral generation ... done

Timings:
Total PNO integral transformation time     ...         32.565 sec
Size of the 3-external file                ...       172 MB
Size of the 4-external file                ...      1129 MB
Size of the IKJL file                      ...         0 MB
Size of the all 3-external file            ...      2064 MB
Size of the 1-external file                ...         5 MB

Making pair/pair overlap matrices          ... done (    0.996 sec)
Size of the pair overlap file              ... 580 MB
Redoing the guess amplitudes               ... done (    0.051 sec)

-------------------------
FINAL STARTUP INFORMATION
-------------------------

E(0)                                       ...   -383.384453364
E(L-MP2)                                   ...     -1.293733615
E(L-MP2) including corrections             ...     -1.293751877
Initial E(tot)                             ...   -384.678205241
<T|T>                                      ...      0.419405599
Number of pairs included                   ... 291
Total number of pairs                      ... 300

------------------------------------------------
                  RHF COUPLED CLUSTER ITERATIONS
------------------------------------------------

Number of PNO amplitudes to be optimized   ...       464890
Number of non-PNO amplitudes               ...      6202956
Untruncated number of regular amplitudes   ...      6394800

Iter       E(tot)           E(Corr)          Delta-E          Residual     Time
  0   -384.609936692     -1.224752538      0.068981077      0.009660397  371.56
                           *** Turning on DIIS ***
  1   -384.677737684     -1.292553529     -0.067800992      0.005515383  338.09
  2   -384.717238001     -1.332053847     -0.039500317      0.002530317  363.18
  3   -384.723675402     -1.338491247     -0.006437400      0.001835878  372.27
  4   -384.726196919     -1.341012764     -0.002521518      0.000787833  310.68
  5   -384.727167749     -1.341983594     -0.000970830      0.000390013  339.08
  6   -384.727446445     -1.342262290     -0.000278696      0.000146474  360.85
  7   -384.727477844     -1.342293689     -0.000031399      0.000065222  297.79
  8   -384.727495868     -1.342311713     -0.000018024      0.000029106  273.76
  9   -384.727496875     -1.342312720     -0.000001007      0.000015174  266.58
               --- The Coupled-Cluster iterations have converged ---
Making OccT1 to AO map ... ok
3-index local transformation (OBS,OBS/AUX) for   op=0   ... done (      1.3 sec)
3-index local transformation (OBS,CABS/AUX) for  op=0   ... done (      2.4 sec)
3-index local transformation (OBS,OBS/AUX) for   op=1   ... done (      0.8 sec)
3-index local transformation (OBS,CABS/AUX) for  op=1   ... done (      2.5 sec)
3-index local transformation (OBS,OBS/AUX) for   op=2   ... done (      0.7 sec)
3-index local transformation (OBS,CABS/AUX) for  op=2   ... done (      2.0 sec)
3-index local transformation (OBS,OBS/AUX) for   op=3   ... done (      1.0 sec)
3-index local transformation (OBS,CABS/AUX) for  op=3   ... done (      3.2 sec)
3-index local transformation (OBS,OBS/AUX) for   op=4   ... done (      1.1 sec)
3-index local transformation (OBS,CABS/AUX) for  op=4   ... done (      3.3 sec)
3-index local transformation (OBS,OBS/AUX) of (pa|X)    ... done (      2.0 sec)
3-index local transformation (OBS_T1,OBS/AUX) for op=0  ... done (      0.6 sec)
3-index local transformation (OBS_T1,OBS/AUX) for op=1  ... done (      0.8 sec)
3-index local transformation (OBS_F,OBS/AUX) for op=2   ... done (      0.8 sec)
3-index local transformation (OBS_F,CABS/AUX)for op=2   ... done (      2.5 sec)
------------------------
RHF DLPNO F12 CORRECTION
------------------------

Doing SCF density matrices                              ... done (      0.0 sec)
Calculating RI Coulomb operators
Retrieving the Coulomb fitting basis                    ... done
       .... OBS/OBS done        (      0.5 sec)
       .... CABS/OBS done       (      0.6 sec)
       .... CABS/CABS done      (      0.9 sec)

F12 OBS GRIDX
-------------

General Integration Accuracy     IntAcc      ... 4.338
Radial Grid Type                 RadialGrid  ... OptM3 with GC (2021)
Angular Grid (max. ang.)         AngularGrid ... 3 (Lebedev-194)
Angular grid pruning method      GridPruning ... 5 (extended)
Weight generation scheme         WeightScheme... Becke
Basis function cutoff            BFCut       ... 1.0000e-10
Integration weight cutoff        WCut        ... 1.0000e-14
Angular grids for H and He will be reduced by one unit
Partially contracted basis set               ... on
Rotationally invariant grid construction     ... off

Total number of grid points                  ...   139134
Total number of batches                      ...     2180
Average number of points per batch           ...       63
Average number of grid points per atom       ...     7730

F12 CABS GRIDX
--------------

General Integration Accuracy     IntAcc      ... 4.338
Radial Grid Type                 RadialGrid  ... OptM3 with GC (2021)
Angular Grid (max. ang.)         AngularGrid ... 3 (Lebedev-194)
Angular grid pruning method      GridPruning ... 5 (extended)
Weight generation scheme         WeightScheme... Becke
Basis function cutoff            BFCut       ... 1.0000e-10
Integration weight cutoff        WCut        ... 1.0000e-14
Angular grids for H and He will be reduced by one unit
Partially contracted basis set               ... on
Rotationally invariant grid construction     ... off

Total number of grid points                  ...   139134
Total number of batches                      ...     2180
Average number of points per batch           ...       63
Average number of grid points per atom       ...     7730

Calculating COSX Exchange operators
       .... OBS/OBS done        (      3.2 sec)
       .... CABS/OBS done       (      3.2 sec)
       .... CABS/CABS done      (     17.6 sec)
Completing Fock operators                               ... done (      0.6 sec)
Calculating F12 intermediates (incore)                  ... 

WARNING (ORCA_TOOLS): CalcCholeskyLLoc() returned with error 1
                      Potentially linear dependencies in the aux basis!



WARNING (ORCA_TOOLS): CalcCholeskyLLoc() returned with error 1
                      Potentially linear dependencies in the aux basis!



WARNING (ORCA_TOOLS): CalcCholeskyLLoc() returned with error 1
                      Potentially linear dependencies in the aux basis!



WARNING (ORCA_TOOLS): CalcCholeskyLLoc() returned with error 1
                      Potentially linear dependencies in the aux basis!



WARNING (ORCA_TOOLS): CalcCholeskyLLoc() returned with error 1
                      Potentially linear dependencies in the aux basis!



WARNING (ORCA_TOOLS): CalcCholeskyLLoc() returned with error 1
                      Potentially linear dependencies in the aux basis!



WARNING (ORCA_TOOLS): CalcCholeskyLLoc() returned with error 1
                      Potentially linear dependencies in the aux basis!



WARNING (ORCA_TOOLS): CalcCholeskyLLoc() returned with error 1
                      Potentially linear dependencies in the aux basis!



WARNING (ORCA_TOOLS): CalcCholeskyLLoc() returned with error 1
                      Potentially linear dependencies in the aux basis!



WARNING (ORCA_TOOLS): CalcCholeskyLLoc() returned with error 1
                      Potentially linear dependencies in the aux basis!



WARNING (ORCA_TOOLS): CalcCholeskyLLoc() returned with error 1
                      Potentially linear dependencies in the aux basis!



WARNING (ORCA_TOOLS): CalcCholeskyLLoc() returned with error 1
                      Potentially linear dependencies in the aux basis!



WARNING (ORCA_TOOLS): CalcCholeskyLLoc() returned with error 1
                      Potentially linear dependencies in the aux basis!



WARNING (ORCA_TOOLS): CalcCholeskyLLoc() returned with error 1
                      Potentially linear dependencies in the aux basis!



WARNING (ORCA_TOOLS): CalcCholeskyLLoc() returned with error 1
                      Potentially linear dependencies in the aux basis!



WARNING (ORCA_TOOLS): CalcCholeskyLLoc() returned with error 1
                      Potentially linear dependencies in the aux basis!


Total T*B*T Contribution              =   0.306867630611

Total V*T MP2 Contribution            =  -0.710729502565

Total V*T CCSD without S Contribution =  -0.610306116978

Total V*T CCSD with S Contribution    =  -0.613504642643

DeltaEC_MP2                           =  -0.403861871955

DeltaEC_CCSD without S                =  -0.303438486367

DeltaEC_CCSD with S                   =  -0.306637012033
Total time of computation of intermediates                       (     82.6 sec)
Calculating correlation correction                      ... done (      0.2 sec)

F12 correction                   :  -0.306637012033
HF basis set correction          :  -0.093371094842
Sum of the two                   :  -0.400008106874

Total time for F12 correction    :   112.040 sec
  .... cleaning up and leaving F12-CCSD

----------------------
COUPLED CLUSTER ENERGY
----------------------

Uncorrected 0th order energy               ...   -383.384453364
F12-HF basis set correction                ...     -0.093371095
Corrected 0th order energy                 ...   -383.477824459

E(CORR)(strong-pairs)                      ...     -1.342312720
E(CORR)(weak-pairs)                        ...     -0.000730791
E(CORR)(corrected)                         ...     -1.343043511
Uncorrected correlation energy             ...     -1.342312720
F12-correction to the correlation energy   ...     -0.306637012
Final F12 correlation energy               ...     -1.649680523

E(TOT)-before F12 corrections              ...   -384.727496875
E(TOT)-after HF correction                 ...   -384.820867970
E(TOT)-after all F12 corrections           ...   -385.127504982

Singles Norm <S|S>**1/2                    ...      0.069075909  
T1 diagnostic                              ...      0.009970249  

------------------
LARGEST AMPLITUDES
------------------
  10-> 34  10-> 34       0.034499
  11-> 34  11-> 34       0.034499
  27-> 34  27-> 34       0.034499
  26-> 34  26-> 34       0.034499
  18-> 34  18-> 34       0.034499
  28-> 34  28-> 34       0.034499
  17-> 34  17-> 34       0.034499
  29-> 34  29-> 34       0.034499
  19-> 35  19-> 35       0.034434
  25-> 35  25-> 35       0.034434
  32-> 35  32-> 35       0.034434
  33-> 35  33-> 35       0.034434
  31-> 35  31-> 35       0.033980
  22-> 35  22-> 35       0.033980
  24-> 35  24-> 35       0.033980
  20-> 35  20-> 35       0.033980


-------------------------------------------
DLPNO BASED TRIPLES CORRECTION
-------------------------------------------

Singles multiplier          ...  1.000000
TCutTNO                     ... 1.000e-09
TCutMP2Pairs                ... 1.000e-06
TCutDOStrong                ... 1.000e-02
TCutMKNStrong               ... 1.000e-02
TCutDOWeak                  ... 2.000e-02
TCutMKNWeak                 ... 1.000e-01

Parameters used in iterative triples
TCutFock                    ... 1.000e-03
TCutWeak                    ... 1.000e-08
TCutWeakGuess               ... 6.000e-06
TCutIter                    ... 1.000e-03
TNOScaleS                   ... 1.000e+01
TNOScaleW                   ... 1.000e+02
ETol                        ... 1.000e-04

Fragment selection                          .... not used
Fock matrix occ-virt block is zero --> Setting DT_in_Triples to false.
Number of Triples that are to be computed   ...      2540

 . . . . . . . . .
10% done  
20% done  
30% done  
40% done  
50% done  
60% done  
70% done  
80% done  
90% done               (     70.585 sec)

-------------------
Triples Iterations:
-------------------

The T1 Strong/Weak pair is = 783/1757 
Initially 8 triples are skipped! To avoid the skip, adjust threshold TCutWeak.

Iter        E(Triple)      Delta-E            Time
  0     0.000000000000    0.057846831987     72.36
  1    -0.061507706027    0.003660874041    398.77
  2    -0.062020495470    0.000512789442    398.64
  3    -0.062068442994    0.000047947524    388.53

------------------
TRIPLES CORRECTION
------------------

The Conventional (T0) is    -0.058193546113
The Truncated    (T0) is    -0.057846831987
The corrected     (T) is    -0.062415157120

Triples timings:
Total time for T0               ...    72.883 sec
Total time for Iterative (T)    ...  1187.618 sec
Total time of overall (T)       ...  1270.841 sec

Triples List generation         ...     0.000 sec
TNO generation                  ...     1.801 sec
Pair density generation         ...     0.008 sec
Look up tables                  ...     0.000 sec
Generating 3-index integrals    ...    28.851 sec
  Make 4-ind.int. from 3-ind.int...    12.511 sec
  Projecting amplitudes (D + S) ...     3.445 sec
  Downprojecting integrals      ...     9.126 sec
  Energy contr. (sum over a,b,c)...     7.474 sec
Fitting ET(->0)                 ...     0.000 sec

Everything after 3-index        ...    41.734 sec

Timing details:
 TNO integrals                  ...    39.987 sec
   Reading 3-index integrals    ...     1.359 sec
   Sorting integrals            ...     5.600 sec
       Sorting integrals 1      ...     0.031 sec
       Sorting integrals 2      ...     3.377 sec
       Sorting integrals 3      ...     0.425 sec
       Sorting integrals 4      ...     0.024 sec
       Sorting integrals 5      ...     0.073 sec
       Sorting integrals 6      ...     1.670 sec
   Calculating local VM**-1/2   ...     1.669 sec
   Orthogonal. integrals        ...     2.648 sec
   Multipl. 3-index integrals   ...    28.712 sec
   All concerning IRIab (w/TNO) ...     6.162 sec

 Calculate W0/W1                ...     9.163 sec
 W 3-ext contribution           ...     4.800 sec
 W 3-int contribution           ...     1.656 sec
 Sorting W                      ...     2.444 sec

 V exchange contribution        ...     2.387 sec

 Timings for Triples without generation
     of 3-index integrals       ...    41.732 sec
       0 weak pairs             ...    40.827 sec
       1 weak pair              ...     0.905 sec
       2 weak pairs             ...     0.000 sec
       3 weak pairs             ...     0.000 sec
  Extra time for extrapolation  ...     0.000 sec

Number of Triples   (0, 1, 2, 3 weak pairs; overall):   2378     162       0       0  (  2540)
Number of Atoms     (0, 1, 2, 3 weak pairs; overall):   17.2    16.7     0.0     0.0  (    18)
Number of PAOs      (0, 1, 2, 3 weak pairs; overall):  175.6   168.7     0.0     0.0  (   180)
Number of AuxFcns   (0, 1, 2, 3 weak pairs; overall):  743.2   491.6     0.0     0.0  (  1270)
Number of TNOs      (0, 1, 2, 3 weak pairs         ):   81.3    60.8     0.0     0.0
Aver. Number of NTNO, Atoms, PAOs, AuxFcns / Triples:   2540    79.9    17.1   175.2   727.2

Triples Correction (T)                     ...     -0.062415157
Final correlation energy (without F12)     ...     -1.405458668
Final correlation energy (with F12)        ...     -1.712095680
F12-E(CCSD)                                ...   -385.127504982
F12-E(CCSD(T))                             ...   -385.189920139



------------------------------------------------------------------------------- 
                                     TIMINGS                                   
------------------------------------------------------------------------------- 


Total execution time                   ...     4980.505 sec

Localization of occupied MO's          ...        1.109 sec (  0.0%)
Fock Matrix Formation                  ...        2.599 sec (  0.1%)
Global overlap, Fock, MKN matrices     ...        0.818 sec (  0.0%)
Differential overlap integrals         ...        3.289 sec (  0.1%)
Organizing maps                        ...        0.044 sec (  0.0%)
RI 3-index integral generations        ...        3.387 sec (  0.1%)
RI-PNO integral transformation         ...      103.459 sec (  2.1%)
Initial Guess                          ...      159.337 sec (  3.2%)
DIIS Solver                            ...        9.070 sec (  0.2%)
State Vector Update                    ...        0.027 sec (  0.0%)
Sigma-vector construction              ...     3289.751 sec ( 66.1%)
  <D|H|D>(0-ext)                       ...      870.852 sec ( 26.5% of sigma)
  <D|H|D>(2-ext Fock)                  ...        0.005 sec (  0.0% of sigma)
  <D|H|D>(2-ext)                       ...      432.846 sec ( 13.2% of sigma)
  <D|H|D>(4-ext)                       ...        7.281 sec (  0.2% of sigma)
[...]
 439   0.0000      11.983138       326.0778 
 440   0.0000      12.037486       327.5567 
 441   0.0000      12.096213       329.1547 
 442   0.0000      12.811133       348.6087 
 443   0.0000      12.972946       353.0118 
 444   0.0000      13.150242       357.8363 
 445   0.0000      13.218017       359.6805 
 446   0.0000      13.249129       360.5271 
 447   0.0000      13.497932       367.2974 
 448   0.0000      13.518788       367.8649 
 449   0.0000      13.644190       371.2773 
 450   0.0000      14.013747       381.3334 
 451   0.0000      14.305464       389.2715 
 452   0.0000      14.574787       396.6001 
 453   0.0000      14.613082       397.6422 
 454   0.0000      14.730908       400.8484 
 455   0.0000      14.738837       401.0641 
 456   0.0000      14.768021       401.8583 
 457   0.0000      14.783670       402.2841 
 458   0.0000      14.786259       402.3546 
 459   0.0000      14.799646       402.7188 
 460   0.0000      14.831695       403.5909 
 461   0.0000      14.833587       403.6424 
 462   0.0000      14.834466       403.6663 
 463   0.0000      14.869639       404.6234 
 464   0.0000      14.943466       406.6324 
 465   0.0000      14.957059       407.0023 
 466   0.0000      14.961594       407.1257 
 467   0.0000      14.983350       407.7177 
 468   0.0000      14.983670       407.7264 
 469   0.0000      15.024127       408.8273 
 470   0.0000      15.036639       409.1678 
 471   0.0000      15.039175       409.2368 
 472   0.0000      15.070393       410.0862 
 473   0.0000      15.119284       411.4166 
 474   0.0000      15.125197       411.5775 
 475   0.0000      15.147794       412.1924 
 476   0.0000      15.164567       412.6488 
 477   0.0000      15.169959       412.7956 
 478   0.0000      15.189103       413.3165 
 479   0.0000      15.233547       414.5259 
 480   0.0000      15.235679       414.5839 
 481   0.0000      15.319617       416.8680 
 482   0.0000      15.334140       417.2632 
 483   0.0000      15.470315       420.9687 
 484   0.0000      15.573654       423.7807 
 485   0.0000      15.713959       427.5986 
 486   0.0000      15.848896       431.2704 
 487   0.0000      15.917825       433.1460 
 488   0.0000      15.918604       433.1672 
 489   0.0000      15.937106       433.6707 
 490   0.0000      15.953230       434.1095 
 491   0.0000      16.369655       445.4409 
 492   0.0000      16.400178       446.2715 
 493   0.0000      16.455573       447.7789 
 494   0.0000      16.499743       448.9808 
 495   0.0000      16.545676       450.2307 
 496   0.0000      16.594557       451.5608 
 497   0.0000      16.606764       451.8930 
 498   0.0000      16.632928       452.6050 
 499   0.0000      16.668125       453.5627 
 500   0.0000      16.793896       456.9851 
 501   0.0000      16.868474       459.0145 
 502   0.0000      50.216833      1366.4695 
 503   0.0000      50.253695      1367.4726 
 504   0.0000      50.308104      1368.9531 
 505   0.0000      50.318962      1369.2486 
 506   0.0000      50.325014      1369.4133 
 507   0.0000      50.355397      1370.2400 
 508   0.0000      50.374945      1370.7720 
 509   0.0000      50.393114      1371.2664 
 510   0.0000      50.509926      1374.4450 
 511   0.0000      50.528178      1374.9416 
 512   0.0000      50.941022      1386.1757 
 513   0.0000      50.947425      1386.3499 
 514   0.0000      51.022020      1388.3797 
 515   0.0000      51.034431      1388.7175 
 516   0.0000      51.048169      1389.0913 
 517   0.0000      51.072922      1389.7649 
 518   0.0000      51.135276      1391.4616 
 519   0.0000      51.148627      1391.8249 
 520   0.0000      51.159268      1392.1145 
 521   0.0000      51.220630      1393.7842 
 522   0.0000      51.227555      1393.9727 
 523   0.0000      51.235419      1394.1866 
 524   0.0000      51.247940      1394.5274 
 525   0.0000      51.263015      1394.9376 
 526   0.0000      51.286330      1395.5720 
 527   0.0000      51.306373      1396.1174 
 528   0.0000      51.351150      1397.3358 
 529   0.0000      51.383455      1398.2149 
 530   0.0000      51.534931      1402.3368 
 531   0.0000      51.575245      1403.4338 
 532   0.0000      61.889323      1684.0941 
 533   0.0000      62.053914      1688.5728 
 534   0.0000      62.382523      1697.5147 
 535   0.0000      62.449498      1699.3372 
 536   0.0000      62.530487      1701.5410 
 537   0.0000      62.844835      1710.0949 
 538   0.0000      62.861684      1710.5534 
 539   0.0000      63.081431      1716.5330 
 540   0.0000      63.563080      1729.6393 
 541   0.0000      63.964406      1740.5600 
Total SCF time: 0 days 0 hours 0 min 26 sec 

Maximum memory used throughout the entire SCF-calculation: 114.3 MB


           ************************************************************
           *        Program running with 19 parallel MPI-processes    *
           *              working on a common directory               *
           ************************************************************

------------------------------------------------------------------------------
                                ORCA  MP2 
------------------------------------------------------------------------------

Freezing NCore=0 chemical core electrons
Initializing SHARK ... done


------------------------------------------------------------------------------
                           ORCA ORBITAL LOCALIZATION
------------------------------------------------------------------------------

Input orbitals are from                  ... naphthalene_lw1x-no-diffuse-on-c_Compound_4.gbw
Output orbitals are to                   ... naphthalene_lw1x-no-diffuse-on-c_Compound_4.loc
Max. number of iterations                ... 128
Localizations seeded randomly            ... off
Convergence tolerance                    ... 1.000e-06
Treshold for strong local MOs            ... 9.500e-01
Treshold for bond MOs                    ... 8.500e-01
Operator                                 ... 0
Orbital range for localization           ... 0 to 33
Localization criterion                   ... FOSTER-BOYS (AUGMENTED HESSIAN)
Doing the dipole integrals     ... o.k.
Initial value of the localization sum :   430.131956
ITERATION   0 : L=  530.1554493966 DL=  1.00e+02 (AVERGE_DL)=    0.4222499225 
ITERATION   1 : L=  564.6109183298 DL=  3.45e+01 (AVERGE_DL)=    0.2478264477 
ITERATION   2 : L=  566.8265817187 DL=  2.22e+00 (AVERGE_DL)=    0.0628449609 
ITERATION   3 : L=  566.9211103086 DL=  9.45e-02 (AVERGE_DL)=    0.0129807612 
ITERATION   4 : L=  566.9281549400 DL=  7.04e-03 (AVERGE_DL)=    0.0035436246 
ITERATION   5 : L=  566.9286444692 DL=  4.90e-04 (AVERGE_DL)=    0.0009341312 
ITERATION   6 : L=  566.9286791875 DL=  3.47e-05 (AVERGE_DL)=    0.0002487699 
ITERATION   7 : L=  566.9286817763 DL=  2.59e-06 (AVERGE_DL)=    0.0000679304 
ITERATION   8 : L=  566.9286819790 DL=  2.03e-07 (AVERGE_DL)=    0.0000190075 
LOCALIZATION SUM CONVERGED

------------------------------------------------------
AUGMENTED HESSIAN OPTIMIZATION OF FOSTER-BOYS ORBITALS
------------------------------------------------------

Spin operator:           0
Orbital window:          0 to 33
Number of iterations:    128
Gradient tolerance:      1.000e-06
Number of pairs:         561
Davidson threshold:      2000
Diagonalization method:  LAPACK
Iter:    0   L: 566.9286819790   Grad. norm: 2.761290e-03
   *** Likely close to a maximum now. ***
       Augmented Hessian eigenvalues:  6.96e-08 -3.79e+00 -4.05e+00 -4.11e+00 ... 
Iter:    1   L: 566.9286820137   Grad. norm: 1.660630e-08
LOCALIZATION HAS CONVERGED.

Eigenvalues of the Hessian:
  0 -3.788e+00
  1 -4.049e+00
  2 -4.114e+00
  3 -4.245e+00
  4 -4.246e+00
  5 -6.577e+00
  6 -6.577e+00
  7 -6.577e+00
  8 -6.577e+00
  9 -6.587e+00
    ...


------------------------------------------------------------------------------- 
                    LOCALIZED MOLECULAR ORBITAL COMPOSITIONS                   
------------------------------------------------------------------------------- 

The Mulliken populations for each LMO on each atom are computed
The LMO`s will be ordered according to atom index and type
  (A) Strongly localized MO`s have populations of >=0.950 on one atom
  (B) Two center bond orbitals have populations of >=0.850 on two atoms
  (C) Other MO`s are considered to be `delocalized`

FOUND  -  10 strongly local MO`s
       -  24 two center bond MO`s
       -   0 significantly delocalized MO`s

Rather strongly localized orbitals:
MO   9:  14C  -   1.003463
MO   8:  13C  -   1.003462
MO   7:  10C  -   1.003778
MO   6:   9C  -   1.003777
MO   5:   5C  -   1.003462
MO   4:   4C  -   1.003777
MO   3:   3C  -   1.004131
MO   2:   2C  -   1.004131
MO   1:   1C  -   1.003778
MO   0:   0C  -   1.003462
Bond-like localized orbitals:
MO  33:  17H  -   0.451491  and  14C  -   0.570722
MO  32:  16H  -   0.451492  and  13C  -   0.570766
MO  31:  15H  -   0.455163  and  10C  -   0.568865
MO  30:  14C  -   0.516469  and  13C  -   0.516462
MO  29:  14C  -   0.473571  and   9C  -   0.489186
MO  28:  14C  -   0.473586  and   9C  -   0.489173
MO  27:  13C  -   0.473590  and  10C  -   0.489157
MO  26:  13C  -   0.473582  and  10C  -   0.489169
MO  25:  12H  -   0.451470  and   5C  -   0.570725
MO  24:  11H  -   0.455185  and   4C  -   0.568842
MO  23:  10C  -   0.501669  and   3C  -   0.532988
MO  22:   9C  -   0.568848  and   6H  -   0.455146
MO  21:   9C  -   0.501674  and   2C  -   0.532996
MO  20:   8H  -   0.455168  and   1C  -   0.568829
MO  19:   7H  -   0.451484  and   0C  -   0.570739
MO  18:   5C  -   0.473589  and   4C  -   0.489161
MO  17:   5C  -   0.473611  and   4C  -   0.489126
MO  16:   5C  -   0.516484  and   0C  -   0.516452
MO  15:   4C  -   0.501683  and   3C  -   0.532995
MO  14:   3C  -   0.443538  and   2C  -   0.443569
MO  13:   3C  -   0.443567  and   2C  -   0.443536
MO  12:   2C  -   0.532978  and   1C  -   0.501669
MO  11:   1C  -   0.489182  and   0C  -   0.473584
MO  10:   1C  -   0.489173  and   0C  -   0.473587
Localized MO's were stored in: naphthalene_lw1x-no-diffuse-on-c_Compound_4.loc



Calculating differential overlap integrals ... ok
Threshold for domain construction in prescreening: TCutDOPre = 3.0e-02

--------------------------
ELECTRON PAIR PRESCREENING
--------------------------

Dipole-based pair screening          .... used

   TCutDOij = 1.000000e-05
   TCutPre  = 1.000000e-06
   .... Finished loop over pairs
Total time spent in the prescreening                  ...     0.024 sec
sum of pair energies estimated for screened out pairs ...       0.000000000000 Eh

---------------------------
MAP CONSTRUCTION THRESHOLDS
---------------------------
    TCutMKN     ...     1.0e-03
    TCutDO      ...     5.0e-03
    TCutC(MO)   ...     1.0e-03
    TCutC(PAO)  ...     1.0e-03

--------------------------------
LOCAL RI TRANSFORMATION (IAVPAO)
--------------------------------

Orbital window:       0 to 33
Number of PAOs:     542
Basis functions:    542 (198 shells)
Aux. functions:    2666 (710 shells)
Use SHARK:           on

Processing maps (0.0 sec)
Average map sizes:
   Aux shells -> MOs              34.0
   Aux shells -> PAOs            542.0
   MOs        -> AO shells       181.1
   PAOs       -> AO shells       197.8

Calculating integrals (1.9 sec, 374.855 MB)
Sorting integrals (3.0 sec, 374.825 MB)
Total time for the integral transformation: 5.1 sec

----------------------------
Local MP2 Energy Calculation
----------------------------
Number of orbital pairs included:    595
Truncation parameters:
    PAOOverlapThresh    =        1.000e-08
    TCutPNO             =        1.000e-09

Spin component scaling                      .... not used
MP2 energy scaling factor                   .... 1.000

Formation of semicanonical amplitudes.
 10% done.
 20% done.
 30% done.
 40% done.
 50% done.
 60% done.
 70% done.
 80% done.
 90% done.
100% done.

Finished the LMP2 guess in 20.8 sec.

Average number of PAOs per pair        536.4
Average number of nrPAOs per pair      506.8
Average number of PNOs per pair         89.6
Average number of AUX  per pair        1714.7

Semicanonical MP2 energy:                   -1.966244980405 Eh
Semicanonical MP2 energy in PNO basis:      -1.966113829756 Eh

Initial amplitudes guess done. Entering DLPNO-MP2 iteration loop:
   Max. no of iterations          ...  100
   Energy convergence tolerance   ...    1.0e-06 Eh
   Residual convergence tolerance ...    5.0e-06
   Fock matrix cutoff             ...    1.0e-05 Eh
   Max # vectors in DIIS          ...  7
   Start iteration of DIIS        ...  0
   Levelshift                     ...  2.000e-01 Eh
   Damping before turning on DIIS ...  5.000e-01
   Damping after turning on DIIS  ...  0.000e+00

                           *** Turning on DIIS ***
Iter=   0:  ECORR= -2.013088242792  DE=   4.7e-02 RMAX=   1.4e-02
Iter=   1:  ECORR= -2.042085998790  DE=   2.9e-02 RMAX=   4.8e-03
Iter=   2:  ECORR= -2.049794031579  DE=   7.7e-03 RMAX=   2.1e-03
Iter=   3:  ECORR= -2.051861557545  DE=   2.1e-03 RMAX=   9.2e-04
Iter=   4:  ECORR= -2.052018003082  DE=   1.6e-04 RMAX=   2.7e-04
Iter=   5:  ECORR= -2.052002588471  DE=   1.5e-05 RMAX=   7.3e-05
Iter=   6:  ECORR= -2.051999267762  DE=   3.3e-06 RMAX=   1.9e-05
Iter=   7:  ECORR= -2.052001910243  DE=   2.6e-06 RMAX=   5.1e-06
Iter=   8:  ECORR= -2.052002447805  DE=   5.4e-07 RMAX=   1.5e-06 => CONVERGED

Finished the DLPNO-MP2 iterations in 113.8 sec.

LMP2 correlation energy (all non-screened pairs)      ...     -2.052002447805 Eh
Semicanonical PNO correction to energy                ...     -0.000131150649 Eh
Sum of pair energies estimated for screened out pairs ...      0.000000000000 Eh
                                                         -----------------------
Total:                                                ...     -2.052133598454 Eh

------------------------------------------------------
 DLPNO-MP2 CORRELATION ENERGY:      -2.052133598454 Eh
------------------------------------------------------

TIMINGS FOR DLPNO-MP2:
Localization                             ...        0.528 sec
Differential overlap integrals           ...        3.068 sec
Prescreening                             ...        0.370 sec
Map setup                                ...        0.016 sec
(ia|v) trafo                             ...        5.057 sec
Semicanonical amplitudes                 ...       16.709 sec
PNO construction                         ...        2.161 sec
DLPNO-MP2 iterations                     ...      113.806 sec
                                             ----------------
Total time                                        145.159 sec


---------------------------------------
MP2 TOTAL ENERGY:     -385.671672415 Eh
---------------------------------------

Maximum memory used throughout the entire MP2-calculation: 477.9 MB

-------------------------   --------------------
FINAL SINGLE POINT ENERGY      -385.671672415142
-------------------------   --------------------


                            ***************************************
                            *     ORCA property calculations      *
                            ***************************************


  WARNING: The energy has been calculated at the MP2 level but the densities
           used in the property calculations are still SCF densities
           MP2 response densities have not been calculated 
           use %mp2 Density relaxed end
           or  %mp2 Density unrelaxed end

                                    ---------------------
                                    Active property flags
                                    ---------------------
   (+) Dipole Moment


------------------------------------------------------------------------------
                       ORCA ELECTRIC PROPERTIES CALCULATION
------------------------------------------------------------------------------

Dipole Moment Calculation                       ... on
Quadrupole Moment Calculation                   ... off
Polarizability Calculation                      ... off
GBWName                                         ... naphthalene_lw1x-no-diffuse-on-c_Compound_4.gbw
Electron density                                ... naphthalene_lw1x-no-diffuse-on-c_Compound_4.scfp
The origin for moment calculation is the CENTER OF MASS  = ( 0.000000,  0.000000  0.000000)

-------------
DIPOLE MOMENT
-------------
                                X             Y             Z
Electronic contribution:      0.00000       0.00000       0.00000
Nuclear contribution   :      0.00000       0.00000       0.00000
                        -----------------------------------------
Total Dipole Moment    :      0.00000       0.00000       0.00000
                        -----------------------------------------
Magnitude (a.u.)       :      0.00000
Magnitude (Debye)      :      0.00000



--------------------
Rotational spectrum 
--------------------
 
Rotational constants in cm-1:     0.104716     0.041339     0.029639 
Rotational constants in MHz :  3139.313308  1239.322676   888.546612 

 Dipole components along the rotational axes: 
x,y,z [a.u.] :     0.000001     0.000001     0.000000 
x,y,z [Debye]:     0.000003     0.000004     0.000001 

 

Timings for individual modules:

Sum of individual times         ...      181.601 sec (=   3.027 min)
GTO integral calculation        ...        3.616 sec (=   0.060 min)   2.0 %
Relativistic integrals          ...        3.121 sec (=   0.052 min)   1.7 %
SCF iterations                  ...       28.308 sec (=   0.472 min)  15.6 %
MP2 module                      ...      146.556 sec (=   2.443 min)  80.7 %
================================================================================

----- Orbital basis set information -----
Your calculation utilizes the basis: def2-SVP
   F. Weigend and R. Ahlrichs, Phys. Chem. Chem. Phys. 7, 3297 (2005).



----------------------------------------------------------------------------------------------
                                        COMPOUND BLOCK                                        
                                     SUMMARY OF VARIABLES                                     
----------------------------------------------------------------------------------------------

Variable Name                                           Value             Evaluation String
-------------                                           -----             -----------------
HF_DZ                                    |            -383.47782446    |  
EC_DZ                                    |              -1.71209568    |  
CC_DZ                                    |              -1.64968052    |  EC_DZ-T_DZ
T_DZ                                     |              -0.06241516    |  
HF_TZ                                    |            -383.49634764    |  
EC_TZ                                    |              -1.78380946    |  
CC_TZ                                    |              -1.69501653    |  EC_TZ-T_TZ
T_TZ                                     |              -0.08879294    |  
HF_CBS                                   |            -383.49915684    |  HF_TZ-(HF_TZ-HF_DZ)*3^-5/(3^-5-2^-5)
CC_CBS                                   |              -1.70278573    |  CC_TZ-(CC_TZ-CC_DZ)*3^-4.7405/(3^-4.7405-2^-4.7405)
T_CBS                                    |              -0.10860147    |  T_TZ-(T_TZ-T_DZ)*3^-2.0879/(3^-2.0879-2^-2.0879)
MP_FC                                    |            -385.06963236    |  
MP_FU                                    |            -385.67167242    |  
MP_CV                                    |              -0.60204005    |  MP_FU-MP_FC
LW1X                                     |            -385.91258410    |  HF_CBS+CC_CBS+T_CBS+MP_CV
                             ****ORCA TERMINATED NORMALLY****
TOTAL RUN TIME: 0 days 3 hours 29 minutes 55 seconds 362 msec
