
                                 *****************
                                 * O   R   C   A *
                                 *****************

                                            #,                                       
                                            ###                                      
                                            ####                                     
                                            #####                                    
                                            ######                                   
                                           ########,                                 
                                     ,,################,,,,,                         
                               ,,#################################,,                 
                          ,,##########################################,,             
                       ,#########################################, ''#####,          
                    ,#############################################,,   '####,        
                  ,##################################################,,,,####,       
                ,###########''''           ''''###############################       
              ,#####''   ,,,,##########,,,,          '''####'''          '####       
            ,##' ,,,,###########################,,,                        '##       
           ' ,,###''''                  '''############,,,                           
         ,,##''                                '''############,,,,        ,,,,,,###''
      ,#''                                            '''#######################'''  
     '                                                          ''''####''''         
             ,#######,   #######,   ,#######,      ##                                
            ,#'     '#,  ##    ##  ,#'     '#,    #''#        ######   ,####,        
            ##       ##  ##   ,#'  ##            #'  '#       #        #'  '#        
            ##       ##  #######   ##           ,######,      #####,   #    #        
            '#,     ,#'  ##    ##  '#,     ,#' ,#      #,         ##   #,  ,#        
             '#######'   ##     ##  '#######'  #'      '#     #####' # '####'        



                  #######################################################
                  #                        -***-                        #
                  #          Department of theory and spectroscopy      #
                  #    Directorship and core code : Frank Neese         #
                  #        Max Planck Institute fuer Kohlenforschung    #
                  #                Kaiser Wilhelm Platz 1               #
                  #                 D-45470 Muelheim/Ruhr               #
                  #                      Germany                        #
                  #                                                     #
                  #                  All rights reserved                #
                  #                        -***-                        #
                  #######################################################


                         Program Version 5.0.1 -  RELEASE  -


 With contributions from (in alphabetic order):
   Daniel Aravena         : Magnetic Suceptibility
   Michael Atanasov       : Ab Initio Ligand Field Theory (pilot matlab implementation)
   Alexander A. Auer      : GIAO ZORA, VPT2 properties, NMR spectrum
   Ute Becker             : Parallelization
   Giovanni Bistoni       : ED, misc. LED, open-shell LED, HFLD
   Martin Brehm           : Molecular dynamics
   Dmytro Bykov           : SCF Hessian
   Vijay G. Chilkuri      : MRCI spin determinant printing, contributions to CSF-ICE
   Dipayan Datta          : RHF DLPNO-CCSD density
   Achintya Kumar Dutta   : EOM-CC, STEOM-CC
   Dmitry Ganyushin       : Spin-Orbit,Spin-Spin,Magnetic field MRCI
   Miquel Garcia          : C-PCM and meta-GGA Hessian, CC/C-PCM, Gaussian charge scheme
   Yang Guo               : DLPNO-NEVPT2, F12-NEVPT2, CIM, IAO-localization
   Andreas Hansen         : Spin unrestricted coupled pair/coupled cluster methods
   Benjamin Helmich-Paris : MC-RPA, TRAH-SCF, COSX integrals
   Lee Huntington         : MR-EOM, pCC
   Robert Izsak           : Overlap fitted RIJCOSX, COSX-SCS-MP3, EOM
   Marcus Kettner         : VPT2
   Christian Kollmar      : KDIIS, OOCD, Brueckner-CCSD(T), CCSD density, CASPT2, CASPT2-K
   Simone Kossmann        : Meta GGA functionals, TD-DFT gradient, OOMP2, MP2 Hessian
   Martin Krupicka        : Initial AUTO-CI
   Lucas Lang             : DCDCAS
   Marvin Lechner         : AUTO-CI (C++ implementation), FIC-MRCC
   Dagmar Lenk            : GEPOL surface, SMD
   Dimitrios Liakos       : Extrapolation schemes; Compound Job, initial MDCI parallelization
   Dimitrios Manganas     : Further ROCIS development; embedding schemes
   Dimitrios Pantazis     : SARC Basis sets
   Anastasios Papadopoulos: AUTO-CI, single reference methods and gradients
   Taras Petrenko         : DFT Hessian,TD-DFT gradient, ASA, ECA, R-Raman, ABS, FL, XAS/XES, NRVS
   Peter Pinski           : DLPNO-MP2, DLPNO-MP2 Gradient
   Christoph Reimann      : Effective Core Potentials
   Marius Retegan         : Local ZFS, SOC
   Christoph Riplinger    : Optimizer, TS searches, QM/MM, DLPNO-CCSD(T), (RO)-DLPNO pert. Triples
   Tobias Risthaus        : Range-separated hybrids, TD-DFT gradient, RPA, STAB
   Michael Roemelt        : Original ROCIS implementation
   Masaaki Saitow         : Open-shell DLPNO-CCSD energy and density
   Barbara Sandhoefer     : DKH picture change effects
   Avijit Sen             : IP-ROCIS
   Kantharuban Sivalingam : CASSCF convergence, NEVPT2, FIC-MRCI
   Bernardo de Souza      : ESD, SOC TD-DFT
   Georgi Stoychev        : AutoAux, RI-MP2 NMR, DLPNO-MP2 response
   Willem Van den Heuvel  : Paramagnetic NMR
   Boris Wezisla          : Elementary symmetry handling
   Frank Wennmohs         : Technical directorship


 We gratefully acknowledge several colleagues who have allowed us to
 interface, adapt or use parts of their codes:
   Stefan Grimme, W. Hujo, H. Kruse, P. Pracht,  : VdW corrections, initial TS optimization,
                  C. Bannwarth, S. Ehlert          DFT functionals, gCP, sTDA/sTD-DF
   Ed Valeev, F. Pavosevic, A. Kumar             : LibInt (2-el integral package), F12 methods
   Garnet Chan, S. Sharma, J. Yang, R. Olivares  : DMRG
   Ulf Ekstrom                                   : XCFun DFT Library
   Mihaly Kallay                                 : mrcc  (arbitrary order and MRCC methods)
   Jiri Pittner, Ondrej Demel                    : Mk-CCSD
   Frank Weinhold                                : gennbo (NPA and NBO analysis)
   Christopher J. Cramer and Donald G. Truhlar   : smd solvation model
   Lars Goerigk                                  : TD-DFT with DH, B97 family of functionals
   V. Asgeirsson, H. Jonsson                     : NEB implementation
   FAccTs GmbH                                   : IRC, NEB, NEB-TS, DLPNO-Multilevel, CI-OPT
                                                   MM, QMMM, 2- and 3-layer-ONIOM, Crystal-QMMM,
                                                   LR-CPCM, SF, NACMEs, symmetry and pop. for TD-DFT,
                                                   nearIR, NL-DFT gradient (VV10), updates on ESD,
                                                   ML-optimized integration grids
   S Lehtola, MJT Oliveira, MAL Marques          : LibXC Library
   Liviu Ungur et al                             : ANISO software


 Your calculation uses the libint2 library for the computation of 2-el integrals
 For citations please refer to: http://libint.valeyev.net

 Your ORCA version has been built with support for libXC version: 5.1.0
 For citations please refer to: https://tddft.org/programs/libxc/

 This ORCA versions uses:
   CBLAS   interface :  Fast vector & matrix operations
   LAPACKE interface :  Fast linear algebra routines
   SCALAPACK package :  Parallel linear algebra routines
   Shared memory     :  Shared parallel matrices
   BLAS/LAPACK       :  OpenBLAS 0.3.15  USE64BITINT DYNAMIC_ARCH NO_AFFINITY SkylakeX SINGLE_THREADED
        Core in use  :  SkylakeX
   Copyright (c) 2011-2014, The OpenBLAS Project




################################################################################


                                COMPOUND JOB MainJOB 
Basename: naphthalene_lw1x_Compound_0

################################################################################

================================================================================
                                       INPUT FILE
================================================================================
NAME = naphthalene_lw1x_Compound_0.inp
|  1> %Maxcore 4000
|  2>  %Pal nprocs 19 End
|  3>  
|  4>  * xyz 0 1
|  5>  C       -0.000000    2.423179    0.705920 
|  6>  C       -0.000000    1.240048    1.397230 
|  7>  C       -0.000000    0.000000    0.714090 
|  8>  C        0.000000   -0.000000   -0.714090 
|  9>  C        0.000000    1.240048   -1.397230 
| 10>  C       -0.000000    2.423179   -0.705920 
| 11>  H       -0.000000   -1.238354    2.480015 
| 12>  H       -0.000000    3.363735    1.240095 
| 13>  H       -0.000000    1.238354    2.480015 
| 14>  C       -0.000000   -1.240048    1.397230 
| 15>  C       -0.000000   -1.240048   -1.397230 
| 16>  H        0.000000    1.238354   -2.480015 
| 17>  H        0.000000    3.363735   -1.240095 
| 18>  C       -0.000000   -2.423179   -0.705920 
| 19>  C       -0.000000   -2.423179    0.705920 
| 20>  H        0.000000   -1.238354   -2.480015 
| 21>  H       -0.000000   -3.363735   -1.240095 
| 22>  H       -0.000000   -3.363735    1.240095 
| 23>  *
| 24>  
| 25> 
| 26>                          ****END OF INPUT****
================================================================================
================================================================================

----- Orbital basis set information -----
Your calculation utilizes the basis: def2-SVP
   F. Weigend and R. Ahlrichs, Phys. Chem. Chem. Phys. 7, 3297 (2005).



################################################################################


                                COMPOUND JOB  1 
Basename: naphthalene_lw1x_Compound_1
NOTE: please remember that MaxCore and PAL settings will be ignored.

################################################################################

================================================================================
                                       INPUT FILE
================================================================================
NAME = naphthalene_lw1x_Compound_1.inp
|  1>     ! DefGrid3 RIJCOSX TightPNO DLPNO-CCSD(T1)-F12 MiniPrint NoPop
|  2>     %Basis
|  3>       Basis "maug-cc-pV(D+d)Z"
|  4>       AuxJ  "AutoAux"
|  5>       AuxC  "AutoAux"
|  6>       CABS  "AutoAux"
|  7>     End
|  8> 
|  9>                          ****END OF INPUT****
================================================================================
Warning! AutoAux has not been tested for CABS - use at your own risk!
================================================================================

----- Orbital basis set information -----
Your calculation utilizes the basis: jun-cc-pV(D+d)Z 
  E. Papajak, D. G. Truhlar, J. Chem. Theory Comput. 7, 10-18 (2011).

----- AuxJ basis set information -----
Your calculation utilizes the AutoAux generation procedure.
  G. L. Stoychev, A. A. Auer, F. Neese, J. Chem. Theory Comput. 13, 554 (2017)

----- AuxC basis set information -----
Your calculation utilizes the AutoAux generation procedure.
  G. L. Stoychev, A. A. Auer, F. Neese, J. Chem. Theory Comput. 13, 554 (2017)

----- CABS information -----
Your calculation utilizes the AutoAux generation procedure.
  G. L. Stoychev, A. A. Auer, F. Neese, J. Chem. Theory Comput. 13, 554 (2017)


                    <<< The CABS basis set will be decontracted >>>

================================================================================
                                        WARNINGS
                       Please study these warnings very carefully!
================================================================================


WARNING: Post HF methods need fully converged wavefunctions
  ===> : Setting SCFConvForced true
         You can overwrite this default with %scf ConvForced false 


WARNING: MDCI localization with Augmented Hessian Foster-Boys
  ===> : Switching off randomization!

INFO   : the flag for use of the SHARK integral package has been found!


                       ****************************
                       * Single Point Calculation *
                       ****************************

---------------------------------
CARTESIAN COORDINATES (ANGSTROEM)
---------------------------------
  C     -0.000000    2.423179    0.705920
  C     -0.000000    1.240048    1.397230
  C     -0.000000    0.000000    0.714090
  C      0.000000   -0.000000   -0.714090
  C      0.000000    1.240048   -1.397230
  C     -0.000000    2.423179   -0.705920
  H     -0.000000   -1.238354    2.480015
  H     -0.000000    3.363735    1.240095
  H     -0.000000    1.238354    2.480015
  C     -0.000000   -1.240048    1.397230
  C     -0.000000   -1.240048   -1.397230
  H      0.000000    1.238354   -2.480015
  H      0.000000    3.363735   -1.240095
  C     -0.000000   -2.423179   -0.705920
  C     -0.000000   -2.423179    0.705920
  H      0.000000   -1.238354   -2.480015
  H     -0.000000   -3.363735   -1.240095
  H     -0.000000   -3.363735    1.240095

----------------------------
CARTESIAN COORDINATES (A.U.)
----------------------------
  NO LB      ZA    FRAG     MASS         X           Y           Z
   0 C     6.0000    0    12.011   -0.000000    4.579145    1.333995
   1 C     6.0000    0    12.011   -0.000000    2.343351    2.640382
   2 C     6.0000    0    12.011   -0.000000    0.000000    1.349435
   3 C     6.0000    0    12.011    0.000000   -0.000000   -1.349435
   4 C     6.0000    0    12.011    0.000000    2.343351   -2.640382
   5 C     6.0000    0    12.011   -0.000000    4.579145   -1.333995
   6 H     1.0000    0     1.008   -0.000000   -2.340150    4.686549
   7 H     1.0000    0     1.008   -0.000000    6.356538    2.343440
   8 H     1.0000    0     1.008   -0.000000    2.340150    4.686549
   9 C     6.0000    0    12.011   -0.000000   -2.343351    2.640382
  10 C     6.0000    0    12.011   -0.000000   -2.343351   -2.640382
  11 H     1.0000    0     1.008    0.000000    2.340150   -4.686549
  12 H     1.0000    0     1.008    0.000000    6.356538   -2.343440
  13 C     6.0000    0    12.011   -0.000000   -4.579145   -1.333995
  14 C     6.0000    0    12.011   -0.000000   -4.579145    1.333995
  15 H     1.0000    0     1.008    0.000000   -2.340150   -4.686549
  16 H     1.0000    0     1.008   -0.000000   -6.356538   -2.343440
  17 H     1.0000    0     1.008   -0.000000   -6.356538    2.343440



           ************************************************************
           *        Program running with 19 parallel MPI-processes    *
           *              working on a common directory               *
           ************************************************************
------------------------------------------------------------------------------
                   ___                                                        
                  /   \      - P O W E R E D   B Y -                         
                 /     \                                                     
                 |  |  |   _    _      __       _____    __    __             
                 |  |  |  | |  | |    /  \     |  _  \  |  |  /  |          
                  \  \/   | |  | |   /    \    | | | |  |  | /  /          
                 / \  \   | |__| |  /  /\  \   | |_| |  |  |/  /          
                |  |  |   |  __  | /  /__\  \  |    /   |      \           
                |  |  |   | |  | | |   __   |  |    \   |  |\   \          
                \     /   | |  | | |  |  |  |  | |\  \  |  | \   \       
                 \___/    |_|  |_| |__|  |__|  |_| \__\ |__|  \__/        
                                                                              
                      - O R C A' S   B I G   F R I E N D -                    
                                      &                                       
                       - I N T E G R A L  F E E D E R -                       
                                                                              
 v1 FN, 2020, v2 2021                                                         
------------------------------------------------------------------------------


Reading SHARK input file naphthalene_lw1x_Compound_1.SHARKINP.tmp ... ok
----------------------
SHARK INTEGRAL PACKAGE
----------------------

Number of atoms                             ...     18
Number of basis functions                   ...    220
Number of shells                            ...    104
Maximum angular momentum                    ...      2
Integral batch strategy                     ... SHARK/LIBINT Hybrid
RI-J (if used) integral strategy            ... SPLIT-RIJ (Revised 2003 algorithm where possible)
Printlevel                                  ...      1
Contraction scheme used                     ... SEGMENTED contraction
Coulomb Range Separation                    ... NOT USED
Exchange Range Separation                   ... NOT USED
Finite Nucleus Model                        ... NOT USED
Auxiliary Coulomb fitting basis             ... AVAILABLE
   # of basis functions in Aux-J            ...   1520
   # of shells in Aux-J                     ...    536
   Maximum angular momentum in Aux-J        ...      3
Auxiliary J/K fitting basis                 ... NOT available
Auxiliary Correlation fitting basis         ... AVAILABLE
   # of basis functions in Aux-C            ...   1520
   # of shells in Aux-C                     ...    536
   Maximum angular momentum in Aux-C        ...      3
Auxiliary 'external' fitting basis          ... NOT available
Integral threshold                          ...     1.000000e-10
Primitive cut-off                           ...     1.000000e-11
Primitive pair pre-selection threshold      ...     1.000000e-11

Calculating pre-screening integrals         ... done (  0.1 sec) Dimension = 104
Organizing shell pair data                  ... done (  0.2 sec)
Shell pair information
Total number of shell pairs                 ...      5460
Shell pairs after pre-screening             ...      5300
Total number of primitive shell pairs       ...     39954
Primitive shell pairs kept                  ...     24095
          la=0 lb=0:   1556 shell pairs
          la=1 lb=0:   2060 shell pairs
          la=1 lb=1:    713 shell pairs
          la=2 lb=0:    548 shell pairs
          la=2 lb=1:    368 shell pairs
          la=2 lb=2:     55 shell pairs

Calculating one electron integrals          ... done (  0.0 sec)
Calculating RI/J V-Matrix + Cholesky decomp.... done (  1.2 sec)
Calculating RI/C V-Matrix + Cholesky decomp.... done (  0.4 sec)
Calculating Nuclear repulsion               ... done (  0.0 sec) ENN=    459.067809426244 Eh

SHARK setup successfully completed in   2.4 seconds

Maximum memory used throughout the entire GTOINT-calculation: 14.5 MB


           ************************************************************
           *        Program running with 19 parallel MPI-processes    *
           *              working on a common directory               *
           ************************************************************

Diagonalization of the overlap matrix:
Smallest eigenvalue                        ... 2.585e-06
Time for diagonalization                   ...    0.023 sec
Threshold for overlap eigenvalues          ... 1.000e-08
Number of eigenvalues below threshold      ... 0
Time for construction of square roots      ...    0.016 sec
Total time needed                          ...    0.041 sec

Time for model grid setup =    0.160 sec

Loading Hartree-Fock densities                     ... done
Calculating cut-offs                               ... done
Initializing the effective Hamiltonian             ... done
Setting up the integral package (SHARK)            ... done
Starting the Coulomb interaction                   ... done (   0.1 sec)
Reading the grid                                   ... done
Mapping shells                                     ... done
Starting the XC term evaluation                    ... done (   0.1 sec)
Transforming the Hamiltonian                       ... done (   0.0 sec)
Diagonalizing the Hamiltonian                      ... done (   0.0 sec)
Back transforming the eigenvectors                 ... done (   0.0 sec)
Now organizing SCF variables                       ... done
--------------------
COSX GRID GENERATION
--------------------

GRIDX 1
-------
General Integration Accuracy     IntAcc      ... 4.020
Radial Grid Type                 RadialGrid  ... OptM3 with GC (2021)
Angular Grid (max. ang.)         AngularGrid ... 2 (Lebedev-110)
Angular grid pruning method      GridPruning ... 4 (adaptive)
Weight generation scheme         WeightScheme... Becke
Basis function cutoff            BFCut       ... 1.0000e-10
Integration weight cutoff        WCut        ... 1.0000e-14
Angular grids for H and He will be reduced by one unit
Partially contracted basis set               ... on
Rotationally invariant grid construction     ... off

Total number of grid points                  ...    26726
Total number of batches                      ...      428
Average number of points per batch           ...       62
Average number of grid points per atom       ...     1485
UseSFitting                                  ... on

GRIDX 2
-------
General Integration Accuracy     IntAcc      ... 4.338
Radial Grid Type                 RadialGrid  ... OptM3 with GC (2021)
Angular Grid (max. ang.)         AngularGrid ... 3 (Lebedev-194)
Angular grid pruning method      GridPruning ... 4 (adaptive)
Weight generation scheme         WeightScheme... Becke
Basis function cutoff            BFCut       ... 1.0000e-10
Integration weight cutoff        WCut        ... 1.0000e-14
Angular grids for H and He will be reduced by one unit
Partially contracted basis set               ... on
Rotationally invariant grid construction     ... off

Total number of grid points                  ...    57938
Total number of batches                      ...      914
Average number of points per batch           ...       63
Average number of grid points per atom       ...     3219
UseSFitting                                  ... on

GRIDX 3
-------
General Integration Accuracy     IntAcc      ... 4.871
Radial Grid Type                 RadialGrid  ... OptM3 with GC (2021)
Angular Grid (max. ang.)         AngularGrid ... 4 (Lebedev-302)
Angular grid pruning method      GridPruning ... 4 (adaptive)
Weight generation scheme         WeightScheme... Becke
Basis function cutoff            BFCut       ... 1.0000e-10
Integration weight cutoff        WCut        ... 1.0000e-14
Angular grids for H and He will be reduced by one unit
Partially contracted basis set               ... on
Rotationally invariant grid construction     ... off

Total number of grid points                  ...   107440
Total number of batches                      ...     1688
Average number of points per batch           ...       63
Average number of grid points per atom       ...     5969
UseSFitting                                  ... on

Time for X-Grid setup             =    2.523 sec

 re-compute Schwartz prescreening matrix in partically contracted basis (1) ...done (   0.107 sec)
--------------
SCF ITERATIONS
--------------
ITER       Energy         Delta-E        Max-DP      RMS-DP      [F,P]     Damp
               ***  Starting incremental Fock matrix formation  ***
  0   -383.0544239109   0.000000000000 0.11509192  0.00563735  0.1562379 0.7000
  1   -383.1664278718  -0.112003960918 0.08999158  0.00453983  0.1053511 0.7000
                               ***Turning on DIIS***
  2   -383.2379846689  -0.071556797143 0.21724363  0.01118408  0.0651214 0.0000
  3   -382.6896401696   0.548344499318 0.06210011  0.00142788  0.0232769 0.0000
  4   -383.3456957538  -0.656055584222 0.01638114  0.00060256  0.0056444 0.0000
                      *** Initiating the SOSCF procedure ***
                           *** Shutting down DIIS ***
                      *** Re-Reading the Fockian *** 
                      *** Removing any level shift *** 
ITER      Energy       Delta-E        Grad      Rot      Max-DP    RMS-DP
  5   -383.38182550  -0.0361297491  0.001948  0.001948  0.007414  0.000245
               *** Restarting incremental Fock matrix formation ***
  6   -383.38935633  -0.0075308306  0.001100  0.002255  0.008628  0.000326
  7   -383.38937961  -0.0000232716  0.000565  0.002119  0.002958  0.000165
  8   -383.38938768  -0.0000080768  0.000153  0.000202  0.003875  0.000113
  9   -383.38938845  -0.0000007683  0.000044  0.000073  0.000714  0.000017
                 **** Energy Check signals convergence ****
              ***Rediagonalizing the Fockian in SOSCF/NRSCF***

               *****************************************************
               *                     SUCCESS                       *
               *           SCF CONVERGED AFTER  10 CYCLES          *
               *****************************************************

Old exchange energy                            =    -54.767034633 Eh
New exchange energy                            =    -54.766964965 Eh
Exchange energy change after final integration =      0.000069668 Eh
Total energy after final integration           =   -383.389318821 Eh
Final COS-X integration done in                =     1.909 sec
Total Energy       :         -383.38931882 Eh          -10432.55375 eV
  Last Energy change         ...   -3.9237e-08  Tolerance :   1.0000e-06
  Last MAX-Density change    ...    2.6645e-15  Tolerance :   1.0000e-05
             **** THE GBW FILE WAS UPDATED (naphthalene_lw1x_Compound_1.gbw) ****
             **** DENSITY naphthalene_lw1x_Compound_1.scfp WAS UPDATED ****
             **** ENERGY FILE WAS UPDATED (naphthalene_lw1x_Compound_1.en.tmp) ****
             **** THE GBW FILE WAS UPDATED (naphthalene_lw1x_Compound_1.gbw) ****
             **** DENSITY naphthalene_lw1x_Compound_1.scfp WAS UPDATED ****
----------------
ORBITAL ENERGIES
----------------

  NO   OCC          E(Eh)            E(eV) 
   0   2.0000     -11.249773      -306.1219 
   1   2.0000     -11.248776      -306.0948 
   2   2.0000     -11.244103      -305.9676 
   3   2.0000     -11.244053      -305.9662 
   4   2.0000     -11.243757      -305.9582 
   5   2.0000     -11.243658      -305.9555 
   6   2.0000     -11.242750      -305.9308 
   7   2.0000     -11.242703      -305.9295 
   8   2.0000     -11.242054      -305.9118 
   9   2.0000     -11.242033      -305.9113 
  10   2.0000      -1.182222       -32.1699 
  11   2.0000      -1.115211       -30.3464 
  12   2.0000      -1.055703       -28.7271 
  13   2.0000      -1.013139       -27.5689 
  14   2.0000      -0.986213       -26.8362 
  15   2.0000      -0.858088       -23.3498 
  16   2.0000      -0.840395       -22.8683 
  17   2.0000      -0.814989       -22.1770 
  18   2.0000      -0.709625       -19.3099 
  19   2.0000      -0.702626       -19.1194 
  20   2.0000      -0.680854       -18.5270 
  21   2.0000      -0.625621       -17.0240 
  22   2.0000      -0.613997       -16.7077 
  23   2.0000      -0.587277       -15.9806 
  24   2.0000      -0.585858       -15.9420 
  25   2.0000      -0.566508       -15.4155 
  26   2.0000      -0.535295       -14.5661 
  27   2.0000      -0.525963       -14.3122 
  28   2.0000      -0.490631       -13.3507 
  29   2.0000      -0.477990       -13.0068 
  30   2.0000      -0.450217       -12.2510 
  31   2.0000      -0.387462       -10.5434 
  32   2.0000      -0.320489        -8.7209 
  33   2.0000      -0.290448        -7.9035 
  34   0.0000       0.062811         1.7092 
  35   0.0000       0.065708         1.7880 
  36   0.0000       0.067335         1.8323 
  37   0.0000       0.076894         2.0924 
  38   0.0000       0.081897         2.2285 
  39   0.0000       0.082765         2.2521 
  40   0.0000       0.099859         2.7173 
  41   0.0000       0.100056         2.7227 
  42   0.0000       0.101305         2.7567 
  43   0.0000       0.107346         2.9210 
  44   0.0000       0.122639         3.3372 
  45   0.0000       0.131924         3.5898 
  46   0.0000       0.133830         3.6417 
  47   0.0000       0.139429         3.7940 
  48   0.0000       0.139506         3.7961 
  49   0.0000       0.139955         3.8084 
  50   0.0000       0.147810         4.0221 
  51   0.0000       0.157071         4.2741 
  52   0.0000       0.159108         4.3295 
  53   0.0000       0.195084         5.3085 
  54   0.0000       0.197326         5.3695 
  55   0.0000       0.201205         5.4751 
  56   0.0000       0.204159         5.5554 
  57   0.0000       0.205746         5.5986 
  58   0.0000       0.208343         5.6693 
  59   0.0000       0.217900         5.9294 
  60   0.0000       0.223741         6.0883 
  61   0.0000       0.226753         6.1703 
  62   0.0000       0.243544         6.6272 
  63   0.0000       0.252685         6.8759 
  64   0.0000       0.258536         7.0351 
  65   0.0000       0.263581         7.1724 
  66   0.0000       0.270305         7.3554 
  67   0.0000       0.276928         7.5356 
  68   0.0000       0.284060         7.7297 
  69   0.0000       0.285799         7.7770 
  70   0.0000       0.287455         7.8221 
  71   0.0000       0.294622         8.0171 
  72   0.0000       0.301128         8.1941 
  73   0.0000       0.306869         8.3503 
  74   0.0000       0.316910         8.6236 
  75   0.0000       0.336883         9.1671 
  76   0.0000       0.346310         9.4236 
  77   0.0000       0.350770         9.5449 
  78   0.0000       0.355450         9.6723 
  79   0.0000       0.361094         9.8259 
  80   0.0000       0.390972        10.6389 
  81   0.0000       0.407500        11.0886 
  82   0.0000       0.412139        11.2149 
  83   0.0000       0.416478        11.3329 
  84   0.0000       0.417730        11.3670 
  85   0.0000       0.419898        11.4260 
  86   0.0000       0.461500        12.5581 
  87   0.0000       0.463650        12.6165 
  88   0.0000       0.468748        12.7553 
  89   0.0000       0.512633        13.9494 
  90   0.0000       0.523096        14.2342 
  91   0.0000       0.523789        14.2530 
  92   0.0000       0.531300        14.4574 
  93   0.0000       0.553368        15.0579 
  94   0.0000       0.689598        18.7649 
  95   0.0000       0.731262        19.8987 
  96   0.0000       0.742521        20.2050 
  97   0.0000       0.755124        20.5480 
  98   0.0000       0.758408        20.6373 
  99   0.0000       0.790127        21.5004 
 100   0.0000       0.810139        22.0450 
 101   0.0000       0.818754        22.2794 
 102   0.0000       0.824036        22.4232 
 103   0.0000       0.847078        23.0502 
 104   0.0000       0.856661        23.3109 
 105   0.0000       0.862760        23.4769 
 106   0.0000       0.866059        23.5667 
 107   0.0000       0.902473        24.5575 
 108   0.0000       0.909666        24.7533 
 109   0.0000       0.910938        24.7879 
 110   0.0000       0.915719        24.9180 
 111   0.0000       0.917821        24.9752 
 112   0.0000       0.947605        25.7857 
 113   0.0000       0.955857        26.0102 
 114   0.0000       0.956212        26.0199 
 115   0.0000       0.965549        26.2739 
 116   0.0000       0.968219        26.3466 
 117   0.0000       0.972485        26.4627 
 118   0.0000       0.980567        26.6826 
 119   0.0000       0.998338        27.1662 
 120   0.0000       1.014413        27.6036 
 121   0.0000       1.019465        27.7411 
 122   0.0000       1.025336        27.9008 
 123   0.0000       1.027635        27.9634 
 124   0.0000       1.039400        28.2835 
 125   0.0000       1.062672        28.9168 
 126   0.0000       1.103958        30.0402 
 127   0.0000       1.109513        30.1914 
 128   0.0000       1.137425        30.9509 
 129   0.0000       1.174941        31.9718 
 130   0.0000       1.176198        32.0060 
 131   0.0000       1.204438        32.7744 
 132   0.0000       1.213798        33.0291 
 133   0.0000       1.224501        33.3204 
 134   0.0000       1.231902        33.5218 
 135   0.0000       1.239621        33.7318 
 136   0.0000       1.245681        33.8967 
 137   0.0000       1.250678        34.0327 
 138   0.0000       1.264683        34.4138 
 139   0.0000       1.275063        34.6962 
 140   0.0000       1.276663        34.7398 
 141   0.0000       1.306152        35.5422 
 142   0.0000       1.326477        36.0953 
 143   0.0000       1.337192        36.3868 
 144   0.0000       1.340705        36.4824 
 145   0.0000       1.353378        36.8273 
 146   0.0000       1.385686        37.7064 
 147   0.0000       1.406603        38.2756 
 148   0.0000       1.411712        38.4146 
 149   0.0000       1.533652        41.7328 
 150   0.0000       1.566647        42.6306 
 151   0.0000       1.579214        42.9726 
 152   0.0000       1.607083        43.7309 
 153   0.0000       1.663292        45.2605 
 154   0.0000       1.672323        45.5062 
 155   0.0000       1.685304        45.8595 
 156   0.0000       1.762278        47.9540 
 157   0.0000       1.762484        47.9596 
 158   0.0000       1.765532        48.0426 
 159   0.0000       1.783323        48.5267 
 160   0.0000       1.789597        48.6974 
 161   0.0000       1.861466        50.6531 
 162   0.0000       1.902282        51.7637 
 163   0.0000       1.913108        52.0583 
 164   0.0000       1.915137        52.1135 
 165   0.0000       1.916455        52.1494 
 166   0.0000       1.934221        52.6328 
 167   0.0000       1.935085        52.6563 
 168   0.0000       1.950866        53.0858 
 169   0.0000       1.955562        53.2135 
 170   0.0000       1.966742        53.5178 
 171   0.0000       1.990091        54.1531 
 172   0.0000       1.991832        54.2005 
 173   0.0000       1.999375        54.4058 
 174   0.0000       2.012665        54.7674 
 175   0.0000       2.051371        55.8206 
 176   0.0000       2.060512        56.0694 
 177   0.0000       2.091343        56.9083 
 178   0.0000       2.116309        57.5877 
 179   0.0000       2.116573        57.5949 
 180   0.0000       2.124152        57.8011 
 181   0.0000       2.136168        58.1281 
 182   0.0000       2.138402        58.1889 
 183   0.0000       2.153913        58.6110 
 184   0.0000       2.162625        58.8480 
 185   0.0000       2.190524        59.6072 
 186   0.0000       2.200839        59.8879 
 187   0.0000       2.202239        59.9260 
 188   0.0000       2.203487        59.9599 
 189   0.0000       2.222583        60.4796 
 190   0.0000       2.301212        62.6192 
 191   0.0000       2.325025        63.2672 
 192   0.0000       2.369398        64.4746 
 193   0.0000       2.406490        65.4839 
 194   0.0000       2.409450        65.5645 
 195   0.0000       2.422529        65.9204 
 196   0.0000       2.444314        66.5132 
 197   0.0000       2.453118        66.7527 
 198   0.0000       2.532941        68.9248 
 199   0.0000       2.560954        69.6871 
 200   0.0000       2.618032        71.2403 
 201   0.0000       2.628684        71.5301 
 202   0.0000       2.670989        72.6813 
 203   0.0000       2.771313        75.4113 
 204   0.0000       2.785056        75.7852 
 205   0.0000       2.801777        76.2402 
 206   0.0000       2.809611        76.4534 
 207   0.0000       2.859762        77.8181 
 208   0.0000       2.867790        78.0365 
 209   0.0000       2.956884        80.4609 
 210   0.0000       3.062757        83.3419 
 211   0.0000       3.064403        83.3866 
 212   0.0000       3.067140        83.4611 
 213   0.0000       3.075223        83.6811 
 214   0.0000       3.177165        86.4550 
 215   0.0000       3.208698        87.3131 
 216   0.0000       3.232692        87.9660 
 217   0.0000       3.352857        91.2359 
 218   0.0000       3.870231       105.3143 
 219   0.0000       4.002212       108.9057 
Total SCF time: 0 days 0 hours 0 min 19 sec 

Maximum memory used throughout the entire SCF-calculation: 67.9 MB


           ************************************************************
           *        Program running with 19 parallel MPI-processes    *
           *              working on a common directory               *
           ************************************************************


------------------------------------------------------------------------------- 
                              ORCA-MATRIX DRIVEN CI                            
------------------------------------------------------------------------------- 


Wavefunction type
-----------------
Correlation treatment                      ...      CCSD     
Single excitations                         ... ON
Orbital optimization                       ... OFF
Calculation of Z vector                    ... OFF
Calculation of Brueckner orbitals          ... OFF
Perturbative triple excitations            ... ON
Calculation of F12 correction              ... ON
   Using RI for F12 correction             ... ON
   GSO occupation number cut-off           ... 0.000e+00
Frozen core treatment                      ... chemical core (20 el)
Reference Wavefunction                     ... RHF
  Internal Orbitals:    10 ...   33 ( 24 MO's/ 48 electrons)
  Virtual  Orbitals:    34 ...  219 (186 MO's              )
Number of AO's                             ...    220
Number of electrons                        ...     68
Number of correlated electrons             ...     48

Algorithmic settings
--------------------
Integral transformation                    ... All integrals via the RI transformation
K(C) Formation                             ... RI-DLPNO
   PNO-Integral Storage                    ... ON DISK
   PNO occupation number cut-off           ... 1.000e-07
   Singles PNO occupation number cut-off   ... 3.000e-09
   PNO Mulliken prescreening cut-off       ... 1.000e-03
   Domain cut-off (Mulliken population)    ... 1.000e-03
   PNO Normalization                       ...    1
Maximum number of iterations               ...        50
Convergence tolerance (max. residuum)      ... 2.500e-05
Level shift for amplitude update           ... 2.000e-01
Maximum number of DIIS vectors             ...         7
DIIS turned on at iteration                ...         0
Damping before turning on DIIS             ...     0.500
Damping after turning on DIIS              ...     0.000
Pair specific amplitude update             ... OFF
Natural orbital iterations                 ... OFF
Perturbative natural orbital generation    ... OFF
Printlevel                                 ... 2

Singles Fock matrix elements calculated using PNOs.

Memory handling:
----------------
Maximum memory for working arrays          ...   4000 MB
Data storage in matrix containers          ... UNCOMPRESSED
Data type for integral storage             ... DOUBLE
In-Core Storage of quantities:
   Amplitudes+Sigma Vector      ... NO
   J+K operators                ... NO
   DIIS vectors                 ... NO
   3-external integrals         ... NO
   4-external integrals         ... NO

Localization treatment:
-----------------------
Localization option                        ...    6
Localization threshhold                    ... -1.0e+00
Using relative localization threshhold     ... 1.0e-08
Neglect threshold for strong pairs         ... 1.000e-05 Eh
Prescreening threshold for very weak pairs ... 1.000e-07 Eh

Initializing the integral package          ... done
Localizing the valence orbitals
------------------------------------------------------------------------------
                           ORCA ORBITAL LOCALIZATION
------------------------------------------------------------------------------

Input orbitals are from                  ... naphthalene_lw1x_Compound_1.gbw
Output orbitals are to                   ... naphthalene_lw1x_Compound_1.loc
Max. number of iterations                ... 128
Localizations seeded randomly            ... off
Convergence tolerance                    ... 1.000e-06
Using relative localization threshhold   ... 1.000e-08
Treshold for strong local MOs            ... 9.500e-01
Treshold for bond MOs                    ... 8.500e-01
Operator                                 ... 0
Orbital range for localization           ... 10 to 33
Localization criterion                   ... FOSTER-BOYS (AUGMENTED HESSIAN)
Doing the dipole integrals     ... o.k.
Initial value of the localization sum :   366.391684
ITERATION   0 : L=  419.2387193073 DL=  5.28e+01 (AVERGE_DL)=    0.4375782974 
ITERATION   1 : L=  422.0954059691 DL=  2.86e+00 (AVERGE_DL)=    0.1017364929 
ITERATION   2 : L=  422.3418873199 DL=  2.46e-01 (AVERGE_DL)=    0.0298839149 
ITERATION   3 : L=  422.3487398513 DL=  6.85e-03 (AVERGE_DL)=    0.0049827715 
ITERATION   4 : L=  422.3491419669 DL=  4.02e-04 (AVERGE_DL)=    0.0012070379 
ITERATION   5 : L=  422.3491672215 DL=  2.53e-05 (AVERGE_DL)=    0.0003024937 
ITERATION   6 : L=  422.3491688395 DL=  1.62e-06 (AVERGE_DL)=    0.0000765636 
ITERATION   7 : L=  422.3491689430 DL=  1.04e-07 (AVERGE_DL)=    0.0000193727 
LOCALIZATION SUM CONVERGED

------------------------------------------------------
AUGMENTED HESSIAN OPTIMIZATION OF FOSTER-BOYS ORBITALS
------------------------------------------------------

Spin operator:           0
Orbital window:          10 to 33
Number of iterations:    128
Gradient tolerance:      1.000e-06
Number of pairs:         276
Davidson threshold:      2000
Diagonalization method:  LAPACK
Iter:    0   L: 422.3491689430   Grad. norm: 2.318293e-03
   *** Likely close to a maximum now. ***
       Augmented Hessian eigenvalues:  3.53e-08 -3.76e+00 -4.00e+00 -4.07e+00 ... 
Iter:    1   L: 422.3491689607   Grad. norm: 6.188664e-09
LOCALIZATION HAS CONVERGED.

Eigenvalues of the Hessian:
  0 -3.762e+00
  1 -4.005e+00
  2 -4.070e+00
  3 -4.194e+00
  4 -4.195e+00
  5 -1.316e+01
  6 -1.368e+01
  7 -1.399e+01
  8 -1.415e+01
  9 -1.479e+01
    ...


------------------------------------------------------------------------------- 
                    LOCALIZED MOLECULAR ORBITAL COMPOSITIONS                   
------------------------------------------------------------------------------- 

The Mulliken populations for each LMO on each atom are computed
The LMO`s will be ordered according to atom index and type
  (A) Strongly localized MO`s have populations of >=0.950 on one atom
  (B) Two center bond orbitals have populations of >=0.850 on two atoms
  (C) Other MO`s are considered to be `delocalized`

FOUND  -   0 strongly local MO`s
       -  22 two center bond MO`s
       -   2 significantly delocalized MO`s

Bond-like localized orbitals:
MO  31:  17H  -   0.482524  and  14C  -   0.592149
MO  30:  16H  -   0.482515  and  13C  -   0.592238
MO  29:  15H  -   0.489419  and  10C  -   0.561094
MO  28:  14C  -   0.479625  and  13C  -   0.479630
MO  27:  14C  -   0.495393  and   9C  -   0.452841
MO  26:  14C  -   0.495405  and   9C  -   0.452830
MO  25:  13C  -   0.495377  and  10C  -   0.452845
MO  24:  13C  -   0.495384  and  10C  -   0.452850
MO  23:  12H  -   0.482513  and   5C  -   0.592269
MO  22:  11H  -   0.489420  and   4C  -   0.561090
MO  21:  10C  -   0.568426  and   3C  -   0.378319
MO  20:   9C  -   0.561082  and   6H  -   0.489421
MO  19:   9C  -   0.568419  and   2C  -   0.378333
MO  18:   8H  -   0.489424  and   1C  -   0.561075
MO  17:   7H  -   0.482522  and   0C  -   0.592185
MO  16:   5C  -   0.495390  and   4C  -   0.452842
MO  15:   5C  -   0.495380  and   4C  -   0.452849
MO  14:   5C  -   0.479627  and   0C  -   0.479628
MO  13:   4C  -   0.568427  and   3C  -   0.378320
MO  12:   2C  -   0.378337  and   1C  -   0.568415
MO  11:   1C  -   0.452856  and   0C  -   0.495377
MO  10:   1C  -   0.452833  and   0C  -   0.495399
More delocalized orbitals:
MO  33:  2C - 0.417 3C - 0.417
MO  32:  2C - 0.417 3C - 0.417
Localized MO's were stored in: naphthalene_lw1x_Compound_1.loc

Localizing the core orbitals
------------------------------------------------------------------------------
                           ORCA ORBITAL LOCALIZATION
------------------------------------------------------------------------------

Input orbitals are from                  ... naphthalene_lw1x_Compound_1.loc
Output orbitals are to                   ... naphthalene_lw1x_Compound_1.loc
Max. number of iterations                ... 128
Localizations seeded randomly            ... off
Convergence tolerance                    ... 1.000e-06
Using relative localization threshhold   ... 1.000e-08
Treshold for strong local MOs            ... 9.500e-01
Treshold for bond MOs                    ... 8.500e-01
Operator                                 ... 0
Orbital range for localization           ... 0 to 9
Localization criterion                   ... FOSTER-BOYS (AUGMENTED HESSIAN)
Doing the dipole integrals     ... o.k.
Initial value of the localization sum :   144.485116
ITERATION   0 : L=  144.4851323647 DL=  1.64e-05 (AVERGE_DL)=    0.0006045663 
ITERATION   1 : L=  144.4851323647 DL=  0.00e+00 (AVERGE_DL)=    0.0000000000 
LOCALIZATION SUM CONVERGED

------------------------------------------------------
AUGMENTED HESSIAN OPTIMIZATION OF FOSTER-BOYS ORBITALS
------------------------------------------------------

Spin operator:           0
Orbital window:          0 to 9
Number of iterations:    128
Gradient tolerance:      1.000e-06
Number of pairs:         45
Davidson threshold:      2000
Diagonalization method:  LAPACK
Iter:    0   L: 144.4851323647   Grad. norm: 7.501849e-05
   *** Likely close to a maximum now. ***
       Augmented Hessian eigenvalues:  6.69e-11 -2.68e+01 -2.68e+01 -2.68e+01 ... 
Iter:    1   L: 144.4851323647   Grad. norm: 4.423176e-17
LOCALIZATION HAS CONVERGED.

Eigenvalues of the Hessian:
  0 -2.682e+01
  1 -2.682e+01
  2 -2.682e+01
  3 -2.682e+01
  4 -2.847e+01
  5 -2.847e+01
  6 -2.863e+01
  7 -2.863e+01
  8 -2.863e+01
  9 -2.863e+01
    ...


------------------------------------------------------------------------------- 
                    LOCALIZED MOLECULAR ORBITAL COMPOSITIONS                   
------------------------------------------------------------------------------- 

The Mulliken populations for each LMO on each atom are computed
The LMO`s will be ordered according to atom index and type
  (A) Strongly localized MO`s have populations of >=0.950 on one atom
  (B) Two center bond orbitals have populations of >=0.850 on two atoms
  (C) Other MO`s are considered to be `delocalized`

FOUND  -  10 strongly local MO`s
       -   0 two center bond MO`s
       -   0 significantly delocalized MO`s

Rather strongly localized orbitals:
MO   9:  14C  -   1.000930
MO   8:  13C  -   1.000929
MO   7:  10C  -   1.000153
MO   6:   9C  -   1.000153
MO   5:   5C  -   1.000930
MO   4:   4C  -   1.000153
MO   3:   3C  -   1.004068
MO   2:   2C  -   1.004068
MO   1:   1C  -   1.000153
MO   0:   0C  -   1.000930
Localized MO's were stored in: naphthalene_lw1x_Compound_1.loc

Warning: reference  - re-canonicalizations have been set to INT 1 VIRT 1
Warning: internal orbitals are localized - no re-canonicalization of internal orbitals
Warning: UsePNO is turned on - no re-canonicalization of internal and virtual orbitals

--------------------------
CLOSED-SHELL FOCK OPERATOR
--------------------------

Restoring SHARK [2] ... ok
Entering RIJCOSX section for the Fock matrix
Trying to retrieve the full J-matrix              ... done
Updating the Fock matrix                          ... done
Making the frozen core Coulomb matrix             ... SHARKdone
Retrieving the full K-matrix                      ... done
Calculating the frozen core K-matrix              ... done
Updating the Fock matrix                          ... done
Time needed for Fock operator              ...            2.383 sec
Reference energy                           ...   -383.389331189

------------------------------
Initializing F12 data
------------------------------

Mapping basis set                  ... done
Dimension of the orbital basis set  = 220
Dimension of the CABS basis set     = 1520
Dimension of the AUX basis set      = 1520
Threshold for CABS orthogonalization = 1.000e-08
Will use an exponential correlation factor -Exp(-gamma r12)/gamma (gamma= 1.200) fit to 6 Gaussians 
Correlation factor:   
  NGauss  :          6      
  Gaussian expansion: 
    a(0)=     0.275538291  d(0)=    -0.219608291 
    a(1)=     1.140545861  d(1)=    -0.254494187 
    a(2)=     3.958256986  d(2)=    -0.154545985 
    a(3)=    13.126859124  d(3)=    -0.093273119 
    a(4)=    49.287410844  d(4)=    -0.057916694 
    a(5)=   272.920095267  d(5)=    -0.035942168 
Calculating one-electron matrices                       ... done (      0.3 sec)
Calculating pre-screening matrices:                     ...
       .... 1/r12 done          (      0.3 sec)
       .... f12/r12 done        (      0.3 sec)
       .... f12 done            (      0.2 sec)
       .... f12^2 done          (      0.6 sec)
       .... [f12,[T1,f12]] done (      0.6 sec)
                                                        ... done (      1.9 sec)
Making CABS spaces                                      ... done (      0.7 sec)
Calculating 2-index 2-center F12 integrals              ... 
Two index explicit correlation integrals  op=0          ... done (      0.1 sec) 
Two index explicit correlation integrals  op=1          ... done (      0.1 sec) 
Two index explicit correlation integrals  op=2          ... done (      0.1 sec) 
Two index explicit correlation integrals  op=3          ... done (      0.1 sec) 
Two index explicit correlation integrals  op=4          ... done (      0.1 sec) 
                                                            done (      0.5 sec)

--------------
DLPNO SETTINGS (2015 fully linear scaling implementation)
--------------

TCutMKN:           1.000e-03
TCutPAO:           1.000e-03
TCutPNO:           1.000e-07
TCutPNOSingles:    3.000e-09
TCutEN:            9.700e-01
TCutPAOExt:        1.000e-01
TCutPairs:         1.000e-05
TCutPre:           1.000e-07
TCutOSV:           1.000e-06
TCutDOij:          1.000e-05
TCutDO:            5.000e-03
TCutC:             1.000e-04
TCutCPAO:          1.000e-03
TCutCMO:           1.000e-03
TScaleDOMP2PreScr: 2.000e+00
TScaleMKNMP2PreScr:1.000e+01
TScalePNOMP2PreScr:1.000e+00
PAO overlap thresh 1.000e-08
Using PNOs for Singles Fock computation
Use new domains
Use fully linear algorithm
TCutTNO:           1.000e-09
TCutMP2Pairs:      1.000e-06
TCutDOStrong:      2.000e-03
TCutMKNStrong:     1.000e-02
TCutMKNWeak:       1.000e-01
TCutDOWeak:        4.000e-03
NTCutTNO:          1

--------------------------
Mulliken population of the LMOs            ... ok
Performing proximity check                 ... No problems found
Calculating differential overlap integrals ... ok

--------------------------
ELECTRON PAIR PRESCREENING
--------------------------

Dipole-based pair screening          .... used

   TCutDOij = 1.000000e-05
   TCutPre  = 1.000000e-07
   .... Finished loop over pairs
Total time spent in the prescreening                  ...     0.013 sec
sum of pair energies estimated for screened out pairs ...       0.000000000000 Eh
Thresholds for map construction and integral transformation for crude MP2:
   TCutMKN                    ...     1.0e-02
   TCutDO                     ...     1.0e-02
   TCutPairs                  ...     1.0e-05
   TCutPNO_CrudeMP2           ...     1.0e-07
   TCutPNOSingles_CrudeMP2    ...     3.0e-09
--------------------------------
LOCAL RI TRANSFORMATION (IAVPAO)
--------------------------------

Orbital window:      10 to 33
Number of PAOs:     220
Basis functions:    220 (104 shells)
Aux. functions:    1520 (536 shells)
Use SHARK:           on

Processing maps (0.0 sec)
Average map sizes:
   Aux shells -> MOs              24.0
   Aux shells -> PAOs            220.0
   MOs        -> AO shells       101.0
   PAOs       -> AO shells       103.7

Calculating integrals (1.1 sec, 61.248 MB)
Sorting integrals (0.5 sec, 61.231 MB)
Total time for the integral transformation: 1.7 sec
--------------------------------
INITIAL GUESS AND PNO GENERATION
--------------------------------

PNO truncation parameters                   .... 
    PAOOverlapThresh   =        1.000e-08

    TCutPairs          =        1.000e-05
    TCutPNO            =        1.000e-07
    TCutPNOSingles     =        3.000e-09
    TCutMP2Pairs       =        1.000e-06
    TCutMKN            =        1.000e-02
    TCutDO             =        1.000e-02

Pair selection                          .... not used
Type of local MP2 treatment                 .... semi-local MP2
Strategy for PNO selection                  .... occupation number selection
Pair density normalization                  .... MP2 norm
Spin component scaling                      .... not used

   .... Finished loop over pairs
Making pair pair interaction lists          ... done

                       ===========================
                        291 OF  300 PAIRS ARE KEPT CCSD PAIRS
                          9 OF  300 PAIRS ARE KEPT MP2 PAIRS FOR (T)
                          0 OF  300 PAIRS ARE SKIPPED
                       ===========================

Total time spent in the initial guess                 ...     1.814 sec
SL-MP2 correlation energy (all non-screened pairs)    ...      -1.233217391351 Eh

Initial PNO correlation energy                        ...      -1.232359700954 Eh
sum of pair energies prescreened and skipped MP2 pairs...       0.000000000000 Eh
sum of pair energies of crude MP2 skipped pairs only  ...       0.000000000000 Eh
sum of MP2 pair energies for pairs that were not kept ...      -0.000051590252 Eh
sum of PNO error estimates for the kept pairs         ...      -0.000806100144 Eh
                                                          --------------------
sum of all corrections                                         -0.000857690396
Initial total correlation energy                               -1.233217391351
Thresholds for map construction and integral transformation for fine MP2 and CCSD(T) calculation:
   TCutMKN   ...     1.0e-03
   TCutDO    ...     5.0e-03
   TCutPairs ...     1.0e-05
   TCutCMO   ...     1.0e-03
   TCutCPAO  ...     1.0e-03

Thresholds for map construction and integral transformation for strong Triples:
   TCutMKN   ...     1.0e-02
   TCutDO    ...     1.0e-02
   TCutCMO   ...     1.0e-03
   TCutCPAO  ...     1.0e-03

Thresholds for map construction and integral transformation for weak Triples:
   TCutMKN   ...     1.0e-01
   TCutDO    ...     2.0e-02
   TCutCMO   ...     1.0e-03
   TCutCPAO  ...     1.0e-03

--------------------------------
LOCAL RI TRANSFORMATION (IAVPAO)
--------------------------------

Orbital window:      10 to 33
Number of PAOs:     220
Basis functions:    220 (104 shells)
Aux. functions:    1520 (536 shells)
Use SHARK:           on

Processing maps (0.0 sec)
Average map sizes:
   Aux shells -> MOs              24.0
   Aux shells -> PAOs            220.0
   MOs        -> AO shells       101.0
   PAOs       -> AO shells       103.7

Calculating integrals (0.5 sec, 61.248 MB)
Sorting integrals (0.2 sec, 61.231 MB)
Total time for the integral transformation: 0.7 sec
--------------------------------
INITIAL GUESS AND PNO GENERATION
--------------------------------

PNO truncation parameters                   .... 
    ScaleTCutPNO       =        1.000e-02
    PAOOverlapThresh   =        1.000e-08

    TCutPairs          =        1.000e-05
    TCutPNO            =        1.000e-07
    TCutPNOSingles     =        3.000e-09
    TCutMP2Pairs       =        1.000e-06
    TCutMKN            =        1.000e-03
    TCutDO             =        5.000e-03

Pair selection                          .... not used
Type of local MP2 treatment                 .... full local PMP2
Strategy for PNO selection                  .... occupation number selection
Pair density normalization                  .... MP2 norm
Spin component scaling                      .... not used

PASS-1: Formation of initial guess LMP2 amplitudes
Initial amplitudes guess done. Entering LMP2 iteration loop:
   Max. no of iterations          ...  50
   Energy convergence tolerance   ...    1.0e-07
   Residual convergence tolerance ...    5.0e-07
   Fock matrix cutoff             ...    1.0e-05 Eh
   DIIS convergence acceleration parameters:
        Max # vectors in DIIS     ... 7
        Start iteration of DIIS   ... 0
        Levelshift                ... 2.000e-01
        Damping factor 1          ... 5.000e-01
        Damping factor 2          ... 1.000e+00
   L-MP2 PNO cut-off              ...   1.0e-09
   L-MP2 PNO cut-off (core)       ...   1.0e-11
                           *** Turning on DIIS ***
LMP2-Iter=   0:  ELMP2= -1.274480725227  DE=   4.1e-02 RMAX=   6.7e-03
LMP2-Iter=   1:  ELMP2= -1.296091759716  DE=   2.2e-02 RMAX=   3.7e-03
LMP2-Iter=   2:  ELMP2= -1.301811177970  DE=   5.7e-03 RMAX=   1.4e-03
LMP2-Iter=   3:  ELMP2= -1.302567301328  DE=   7.6e-04 RMAX=   5.2e-04
LMP2-Iter=   4:  ELMP2= -1.302569824761  DE=   2.5e-06 RMAX=   1.5e-04
LMP2-Iter=   5:  ELMP2= -1.302570421729  DE=   6.0e-07 RMAX=   3.7e-05
LMP2-Iter=   6:  ELMP2= -1.302573180679  DE=   2.8e-06 RMAX=   1.2e-05
LMP2-Iter=   7:  ELMP2= -1.302574158019  DE=   9.8e-07 RMAX=   3.1e-06
LMP2-Iter=   8:  ELMP2= -1.302574168070  DE=   1.0e-08 RMAX=   9.6e-07
LMP2-Iter=   9:  ELMP2= -1.302574079308  DE=   8.9e-08 RMAX=   2.8e-07
LMP2-Iter=  10:  ELMP2= -1.302574002495  DE=   7.7e-08 RMAX=   9.8e-08 => CONVERGED
PASS-2: Formation of Pair natural orbitals
   .... Finished loop over pairs

 PNO Occupation Number Statistics: 
  | Av. % of trace(Dij) retained        ...  99.533551820294
  | sigma^2 in % of trace(Dij) retained ...   7.42e-01
  | Av. % of trace(Di) retained         ...  99.999736120507
  | sigma^2 in % of trace(Di) retained  ...   4.14e-09
 Distributions of % trace(Dij) recovered:
  |       >= 99.9  ...   149 ( 49.7 % of all pairs)
  |   [90.0, 99.0) ...    37 ( 12.3 % of all pairs)
  |   [99.0, 99.9) ...   114 ( 38.0 % of all pairs)
 Distributions of % trace(Di) recovered :
  |       >= 99.9  ...    24 (100.0 % of all I-pairs )

Making pair pair interaction lists          ... done

                       ===========================
                        291 OF  300 PAIRS ARE KEPT
                       ===========================

Total time spent in the initial guess                 ...    52.938 sec
L-MP2 correlation energy (all non-screened pairs)     ...      -1.302574002495 Eh
L-MP2 PNO error correction                            ...      -0.000012720097 Eh
                                                          --------------------
Initial total L-MP2 energy (non-screened pairs)       ...      -1.302586722592 Eh

Initial PNO correlation energy                        ...      -1.301826234324 Eh
sum of pair energies estimated for screened out pairs ...       0.000000000000 Eh
sum of MP2 pair energies for pairs that were not kept ...      -0.000063794771 Eh
sum of PNO error estimates for the kept pairs         ...      -0.000715420050 Eh
                                                          --------------------
sum of all corrections                                         -0.000779214820
Initial total correlation energy                               -1.302605449144
Thresholds for map construction and integral transformation for fine MP2 and CCSD(T) calculation:
   TCutMKN   ...     1.0e-03
   TCutDO    ...     5.0e-03
   TCutPairs ...     1.0e-05
   TCutCMO   ...     1.0e-03
   TCutCPAO  ...     1.0e-03

Number of pairs in F12 (TCutDOF12 = 3.000e-04)        ...     291

Time for aux screen maps:            0.005
Time for maps after fine MP2:            0.019
-----------------------------
LOCAL RI TRANSFORMATION (IJV)
-----------------------------

Orbital window:      10 to 33
Basis functions:    220 (104 shells)
Aux. functions:    1520 (536 shells)
Use SHARK:           on

Processing maps (0.0 sec)
Average map sizes:
   Aux shells -> MOs(i)           24.0
   Aux shells -> MOs(j)           24.0
   MOs        -> AO shells       101.0

Calculating integrals (0.4 sec, 6.697 MB)
Sorting integrals (0.0 sec, 6.680 MB)
Total time for the integral transformation: 0.5 sec
--------------------------------
LOCAL RI TRANSFORMATION (VABPAO)
--------------------------------

Number of PAOs:     220
Basis functions:    220 (104 shells)
Aux. functions:    1520 (536 shells)
Use SHARK:           on

Processing maps (0.0 sec)
Average map sizes:
   Aux shells -> PAOs            220.0
   PAOs       -> AO shells       103.7

Calculating integrals (0.6 sec, 561.297 MB)
Finished


-------------------------------------
Pair Pair Term precalculation with     
RI-(ij|mn) and (im|jn) transformation  
ON THE FLY                             
-------------------------------------

   IBatch   1 (of   5)              ... done (   11.670 sec)
   IBatch   2 (of   5)              ... done (   17.230 sec)
   IBatch   3 (of   5)              ... done (   19.539 sec)
   IBatch   4 (of   5)              ... done (   26.127 sec)
   IBatch   5 (of   5)              ... done (   15.344 sec)
Total EXT                           ...          89.911 sec

---------------------
RI-PNO TRANSFORMATION
---------------------

Total Number of PNOs                   ... 11439
Average number of PNOs per pair        ...    39
Maximal number of PNOs per pair        ...    85
   #pairs with  1 -  5 PNOs   :    0
   #pairs with  6 - 10 PNOs   :   12
   #pairs with 11 - 15 PNOs   :    4
   #pairs with 16 - 20 PNOs   :   12
   #pairs with 21 - 25 PNOs   :   42
   #pairs with 26 - 30 PNOs   :   16
   #pairs with 31 - 35 PNOs   :   26
   #pairs with 36 - 40 PNOs   :   48
   #pairs with 41 - 45 PNOs   :   52
   #pairs with 46 - 50 PNOs   :   24
   #pairs with 51 - 55 PNOs   :   24
   #pairs with 61 - 65 PNOs   :    4
   #pairs with 66 - 70 PNOs   :   10
   #pairs with 71 - 75 PNOs   :   16
   #pairs with 81 - 85 PNOs   :    1

Generation of (ij|ab)[P] integrals            ... on
Generation of (ia|bc)[P],(ja|bc)[P] integrals ... on
Storage of 3 and 4 external integrals         ... on
Generation of ALL (ka|bc)[P] integrals        ... on
Keep RI integrals in memory                   ... off

Ibatch:  1 (of  1)
Starting 2-4 index PNO integral generation ... done

Timings:
Total PNO integral transformation time     ...         39.314 sec
Size of the 3-external file                ...       209 MB
Size of the 4-external file                ...      1501 MB
Size of the IKJL file                      ...         0 MB
Size of the all 3-external file            ...      2518 MB
Size of the 1-external file                ...         6 MB

Making pair/pair overlap matrices          ... done (    2.598 sec)
Size of the pair overlap file              ... 657 MB
Redoing the guess amplitudes               ... done (    0.016 sec)

-------------------------
FINAL STARTUP INFORMATION
-------------------------

E(0)                                       ...   -383.389331189
E(L-MP2)                                   ...     -1.302586723
E(L-MP2) including corrections             ...     -1.302605449
Initial E(tot)                             ...   -384.691936638
<T|T>                                      ...      0.423595762
Number of pairs included                   ... 291
Total number of pairs                      ... 300

------------------------------------------------
                  RHF COUPLED CLUSTER ITERATIONS
------------------------------------------------

Number of PNO amplitudes to be optimized   ...       524639
Number of non-PNO amplitudes               ...     10067436
Untruncated number of regular amplitudes   ...     10378800

Iter       E(tot)           E(Corr)          Delta-E          Residual     Time
  0   -384.622383049     -1.232272645      0.070314077      0.011063160   95.81
                           *** Turning on DIIS ***
  1   -384.689513161     -1.299402758     -0.067130112      0.005474626   84.05
  2   -384.728909285     -1.338798882     -0.039396124      0.002447641   83.92
  3   -384.735313444     -1.345203041     -0.006404159      0.001830152   88.08
  4   -384.737774544     -1.347664141     -0.002461100      0.000762228   85.71
  5   -384.738724397     -1.348613994     -0.000949853      0.000363092   87.92
  6   -384.739003902     -1.348893499     -0.000279505      0.000132928   87.94
  7   -384.739035766     -1.348925363     -0.000031864      0.000061861   87.07
  8   -384.739053213     -1.348942809     -0.000017446      0.000028056   94.07
  9   -384.739054017     -1.348943614     -0.000000805      0.000012004   91.22
               --- The Coupled-Cluster iterations have converged ---
Making OccT1 to AO map ... ok
3-index local transformation (OBS,OBS/AUX) for   op=0   ... done (      1.2 sec)
3-index local transformation (OBS,CABS/AUX) for  op=0   ... done (      3.9 sec)
3-index local transformation (OBS,OBS/AUX) for   op=1   ... done (      1.4 sec)
3-index local transformation (OBS,CABS/AUX) for  op=1   ... done (      5.3 sec)
3-index local transformation (OBS,OBS/AUX) for   op=2   ... done (      0.8 sec)
3-index local transformation (OBS,CABS/AUX) for  op=2   ... done (      3.0 sec)
3-index local transformation (OBS,OBS/AUX) for   op=3   ... done (      1.3 sec)
3-index local transformation (OBS,CABS/AUX) for  op=3   ... done (      4.8 sec)
3-index local transformation (OBS,OBS/AUX) for   op=4   ... done (      1.6 sec)
3-index local transformation (OBS,CABS/AUX) for  op=4   ... done (      5.0 sec)
3-index local transformation (OBS,OBS/AUX) of (pa|X)    ... done (      3.4 sec)
3-index local transformation (OBS_T1,OBS/AUX) for op=0  ... done (      1.1 sec)
3-index local transformation (OBS_T1,OBS/AUX) for op=1  ... done (      1.4 sec)
3-index local transformation (OBS_F,OBS/AUX) for op=2   ... done (      1.3 sec)
3-index local transformation (OBS_F,CABS/AUX)for op=2   ... done (      3.1 sec)
------------------------
RHF DLPNO F12 CORRECTION
------------------------

Doing SCF density matrices                              ... done (      0.0 sec)
Calculating RI Coulomb operators
Retrieving the Coulomb fitting basis                    ... done
       .... OBS/OBS done        (      0.9 sec)
       .... CABS/OBS done       (      0.9 sec)
       .... CABS/CABS done      (      1.4 sec)

F12 OBS GRIDX
-------------

General Integration Accuracy     IntAcc      ... 4.338
Radial Grid Type                 RadialGrid  ... OptM3 with GC (2021)
Angular Grid (max. ang.)         AngularGrid ... 3 (Lebedev-194)
Angular grid pruning method      GridPruning ... 5 (extended)
Weight generation scheme         WeightScheme... Becke
Basis function cutoff            BFCut       ... 1.0000e-10
Integration weight cutoff        WCut        ... 1.0000e-14
Angular grids for H and He will be reduced by one unit
Partially contracted basis set               ... on
Rotationally invariant grid construction     ... off

Total number of grid points                  ...   139134
Total number of batches                      ...     2180
Average number of points per batch           ...       63
Average number of grid points per atom       ...     7730

F12 CABS GRIDX
--------------

General Integration Accuracy     IntAcc      ... 4.338
Radial Grid Type                 RadialGrid  ... OptM3 with GC (2021)
Angular Grid (max. ang.)         AngularGrid ... 3 (Lebedev-194)
Angular grid pruning method      GridPruning ... 5 (extended)
Weight generation scheme         WeightScheme... Becke
Basis function cutoff            BFCut       ... 1.0000e-10
Integration weight cutoff        WCut        ... 1.0000e-14
Angular grids for H and He will be reduced by one unit
Partially contracted basis set               ... on
Rotationally invariant grid construction     ... off

Total number of grid points                  ...   139134
Total number of batches                      ...     2180
Average number of points per batch           ...       63
Average number of grid points per atom       ...     7730

Calculating COSX Exchange operators
       .... OBS/OBS done        (      4.5 sec)
       .... CABS/OBS done       (      4.6 sec)
       .... CABS/CABS done      (     30.0 sec)
Completing Fock operators                               ... done (      1.0 sec)
Calculating F12 intermediates (incore)                  ... 

WARNING (ORCA_TOOLS): CalcCholeskyLLoc() returned with error 1
                      Potentially linear dependencies in the aux basis!



WARNING (ORCA_TOOLS): CalcCholeskyLLoc() returned with error 1
                      Potentially linear dependencies in the aux basis!



WARNING (ORCA_TOOLS): CalcCholeskyLLoc() returned with error 1
                      Potentially linear dependencies in the aux basis!



WARNING (ORCA_TOOLS): CalcCholeskyLLoc() returned with error 1
                      Potentially linear dependencies in the aux basis!



WARNING (ORCA_TOOLS): CalcCholeskyLLoc() returned with error 1
                      Potentially linear dependencies in the aux basis!



WARNING (ORCA_TOOLS): CalcCholeskyLLoc() returned with error 1
                      Potentially linear dependencies in the aux basis!



WARNING (ORCA_TOOLS): CalcCholeskyLLoc() returned with error 1
                      Potentially linear dependencies in the aux basis!



WARNING (ORCA_TOOLS): CalcCholeskyLLoc() returned with error 1
                      Potentially linear dependencies in the aux basis!



WARNING (ORCA_TOOLS): CalcCholeskyLLoc() returned with error 1
                      Potentially linear dependencies in the aux basis!



WARNING (ORCA_TOOLS): CalcCholeskyLLoc() returned with error 1
                      Potentially linear dependencies in the aux basis!



WARNING (ORCA_TOOLS): CalcCholeskyLLoc() returned with error 1
                      Potentially linear dependencies in the aux basis!



WARNING (ORCA_TOOLS): CalcCholeskyLLoc() returned with error 1
                      Potentially linear dependencies in the aux basis!



WARNING (ORCA_TOOLS): CalcCholeskyLLoc() returned with error 1
                      Potentially linear dependencies in the aux basis!



WARNING (ORCA_TOOLS): CalcCholeskyLLoc() returned with error 1
                      Potentially linear dependencies in the aux basis!



WARNING (ORCA_TOOLS): CalcCholeskyLLoc() returned with error 1
                      Potentially linear dependencies in the aux basis!



WARNING (ORCA_TOOLS): CalcCholeskyLLoc() returned with error 1
                      Potentially linear dependencies in the aux basis!


Total T*B*T Contribution              =   0.303844400740

Total V*T MP2 Contribution            =  -0.701214776099

Total V*T CCSD without S Contribution =  -0.602518681460

Total V*T CCSD with S Contribution    =  -0.605423566220

DeltaEC_MP2                           =  -0.397370375359

DeltaEC_CCSD without S                =  -0.298674280720

DeltaEC_CCSD with S                   =  -0.301579165480
Total time of computation of intermediates                       (    152.3 sec)
Calculating correlation correction                      ... done (      0.3 sec)

F12 correction                   :  -0.301579165480
HF basis set correction          :  -0.097667124498
Sum of the two                   :  -0.399246289978

Total time for F12 correction    :   198.379 sec
  .... cleaning up and leaving F12-CCSD

----------------------
COUPLED CLUSTER ENERGY
----------------------

Uncorrected 0th order energy               ...   -383.389331189
F12-HF basis set correction                ...     -0.097667124
Corrected 0th order energy                 ...   -383.486998313

E(CORR)(strong-pairs)                      ...     -1.348943614
E(CORR)(weak-pairs)                        ...     -0.000779215
E(CORR)(corrected)                         ...     -1.349722829
Uncorrected correlation energy             ...     -1.348943614
F12-correction to the correlation energy   ...     -0.301579165
Final F12 correlation energy               ...     -1.651301994

E(TOT)-before F12 corrections              ...   -384.739054017
E(TOT)-after HF correction                 ...   -384.836721142
E(TOT)-after all F12 corrections           ...   -385.138300307

Singles Norm <S|S>**1/2                    ...      0.067780364  
T1 diagnostic                              ...      0.009783253  

------------------
LARGEST AMPLITUDES
------------------
  10-> 34  10-> 34       0.034242
  16-> 34  16-> 34       0.034242
  11-> 34  11-> 34       0.034242
  15-> 34  15-> 34       0.034242
  25-> 34  25-> 34       0.034242
  24-> 34  24-> 34       0.034242
  27-> 34  27-> 34       0.034242
  26-> 34  26-> 34       0.034242
  32-> 35  32-> 35       0.028055
  33-> 35  33-> 35       0.028055
  20-> 37  20-> 37       0.026640
  18-> 37  18-> 37       0.026640
  29-> 37  29-> 37       0.026640
  22-> 37  22-> 37       0.026640
  31-> 37  31-> 37       0.026015
  30-> 37  30-> 37       0.026012


-------------------------------------------
DLPNO BASED TRIPLES CORRECTION
-------------------------------------------

Singles multiplier          ...  1.000000
TCutTNO                     ... 1.000e-09
TCutMP2Pairs                ... 1.000e-06
TCutDOStrong                ... 1.000e-02
TCutMKNStrong               ... 1.000e-02
TCutDOWeak                  ... 2.000e-02
TCutMKNWeak                 ... 1.000e-01

Parameters used in iterative triples
TCutFock                    ... 1.000e-03
TCutWeak                    ... 1.000e-08
TCutWeakGuess               ... 6.000e-06
TCutIter                    ... 1.000e-03
TNOScaleS                   ... 1.000e+01
TNOScaleW                   ... 1.000e+02
ETol                        ... 1.000e-04

Fragment selection                          .... not used
Number of Triples that are to be computed   ...      2540

 . . . . . . . . .
10% done  
20% done  
30% done  
40% done               (     78.101 sec)
 . . . . . . . . .
50% done  
60% done  
70% done  
80% done  
90% done               (     59.371 sec)

-------------------
Triples Iterations:
-------------------

The T1 Strong/Weak pair is = 782/1758 
Initially 8 triples are skipped! To avoid the skip, adjust threshold TCutWeak.

Iter        E(Triple)      Delta-E            Time
  0     0.000000000000    0.059217062221    140.23
  1    -0.063020087524    0.003803025302    412.15
  2    -0.063537425513    0.000517337989    406.65
  3    -0.063586572972    0.000049147459    404.02

------------------
TRIPLES CORRECTION
------------------

The Conventional (T0) is    -0.059595660313
The Truncated    (T0) is    -0.059217062221
The corrected     (T) is    -0.063965171063

Triples timings:
Total time for T0               ...   141.170 sec
Total time for Iterative (T)    ...  1224.894 sec
Total time of overall (T)       ...  1378.654 sec

Triples List generation         ...     0.000 sec
TNO generation                  ...     2.777 sec
Pair density generation         ...     0.008 sec
Look up tables                  ...     0.000 sec
Generating 3-index integrals    ...    70.433 sec
  Make 4-ind.int. from 3-ind.int...    24.823 sec
  Projecting amplitudes (D + S) ...     4.686 sec
  Downprojecting integrals      ...    12.045 sec
  Energy contr. (sum over a,b,c)...    13.279 sec
Fitting ET(->0)                 ...     0.000 sec

Everything after 3-index        ...    67.038 sec

Timing details:
 TNO integrals                  ...    93.060 sec
   Reading 3-index integrals    ...     3.894 sec
   Sorting integrals            ...    11.598 sec
       Sorting integrals 1      ...     0.001 sec
       Sorting integrals 2      ...     8.326 sec
       Sorting integrals 3      ...     0.760 sec
       Sorting integrals 4      ...     0.045 sec
       Sorting integrals 5      ...     0.165 sec
       Sorting integrals 6      ...     2.301 sec
   Calculating local VM**-1/2   ...     4.743 sec
   Orthogonal. integrals        ...     5.603 sec
   Multipl. 3-index integrals   ...    67.221 sec
   All concerning IRIab (w/TNO) ...    11.588 sec

 Calculate W0/W1                ...    12.193 sec
 W 3-ext contribution           ...     6.454 sec
 W 3-int contribution           ...     2.127 sec
 Sorting W                      ...     3.285 sec

 V exchange contribution        ...     5.940 sec

 Timings for Triples without generation
     of 3-index integrals       ...    67.034 sec
       0 weak pairs             ...    65.296 sec
       1 weak pair              ...     1.738 sec
       2 weak pairs             ...     0.000 sec
       3 weak pairs             ...     0.000 sec
  Extra time for extrapolation  ...     0.000 sec

Number of Triples   (0, 1, 2, 3 weak pairs; overall):   2378     162       0       0  (  2540)
Number of Atoms     (0, 1, 2, 3 weak pairs; overall):   17.2    17.3     0.0     0.0  (    18)
Number of PAOs      (0, 1, 2, 3 weak pairs; overall):  215.8   216.3     0.0     0.0  (   220)
Number of AuxFcns   (0, 1, 2, 3 weak pairs; overall): 1189.2   595.3     0.0     0.0  (  1520)
Number of TNOs      (0, 1, 2, 3 weak pairs         ):   88.3    63.5     0.0     0.0
Aver. Number of NTNO, Atoms, PAOs, AuxFcns / Triples:   2540    86.7    17.2   215.8  1151.3

Triples Correction (T)                     ...     -0.063965171
Final correlation energy (without F12)     ...     -1.413688000
Final correlation energy (with F12)        ...     -1.715267165
F12-E(CCSD)                                ...   -385.138300307
F12-E(CCSD(T))                             ...   -385.202265478



------------------------------------------------------------------------------- 
                                     TIMINGS                                   
------------------------------------------------------------------------------- 


Total execution time                   ...     2707.553 sec

Localization of occupied MO's          ...        0.797 sec (  0.0%)
Fock Matrix Formation                  ...        2.383 sec (  0.1%)
Global overlap, Fock, MKN matrices     ...        0.422 sec (  0.0%)
Differential overlap integrals         ...        2.873 sec (  0.1%)
Organizing maps                        ...        0.043 sec (  0.0%)
RI 3-index integral generations        ...        3.580 sec (  0.1%)
RI-PNO integral transformation         ...      136.316 sec (  5.0%)
Initial Guess                          ...       54.804 sec (  2.0%)
DIIS Solver                            ...        6.354 sec (  0.2%)
State Vector Update                    ...        0.029 sec (  0.0%)
Sigma-vector construction              ...      883.567 sec ( 32.6%)
  <D|H|D>(0-ext)                       ...      192.037 sec ( 21.7% of sigma)
  <D|H|D>(2-ext Fock)                  ...        0.007 sec (  0.0% of sigma)
  <D|H|D>(2-ext)                       ...       55.952 sec (  6.3% of sigma)
  <D|H|D>(4-ext)                       ...       10.846 sec (  1.2% of sigma)
  <D|H|D>(4-ext-corr)                  ...       42.988 sec (  4.9% of sigma)
  CCSD doubles correction              ...       26.532 sec (  3.0% of sigma)
  <S|H|S>                              ...       46.682 sec (  5.3% of sigma)
[...]
 437   0.0000      11.943274       324.9930 
 438   0.0000      11.943979       325.0122 
 439   0.0000      11.983138       326.0778 
 440   0.0000      12.037487       327.5567 
 441   0.0000      12.096213       329.1547 
 442   0.0000      12.811134       348.6087 
 443   0.0000      12.972946       353.0118 
 444   0.0000      13.150242       357.8363 
 445   0.0000      13.218017       359.6805 
 446   0.0000      13.249129       360.5271 
 447   0.0000      13.497932       367.2974 
 448   0.0000      13.518788       367.8649 
 449   0.0000      13.644191       371.2773 
 450   0.0000      14.013747       381.3335 
 451   0.0000      14.305465       389.2715 
 452   0.0000      14.574787       396.6001 
 453   0.0000      14.613082       397.6422 
 454   0.0000      14.730908       400.8484 
 455   0.0000      14.738837       401.0641 
 456   0.0000      14.768021       401.8583 
 457   0.0000      14.783670       402.2841 
 458   0.0000      14.786260       402.3546 
 459   0.0000      14.799646       402.7188 
 460   0.0000      14.831695       403.5910 
 461   0.0000      14.833587       403.6424 
 462   0.0000      14.834466       403.6663 
 463   0.0000      14.869639       404.6235 
 464   0.0000      14.943466       406.6324 
 465   0.0000      14.957059       407.0023 
 466   0.0000      14.961593       407.1257 
 467   0.0000      14.983350       407.7177 
 468   0.0000      14.983670       407.7264 
 469   0.0000      15.024127       408.8273 
 470   0.0000      15.036640       409.1678 
 471   0.0000      15.039175       409.2368 
 472   0.0000      15.070393       410.0862 
 473   0.0000      15.119284       411.4166 
 474   0.0000      15.125196       411.5775 
 475   0.0000      15.147795       412.1924 
 476   0.0000      15.164567       412.6488 
 477   0.0000      15.169959       412.7956 
 478   0.0000      15.189103       413.3165 
 479   0.0000      15.233548       414.5259 
 480   0.0000      15.235679       414.5839 
 481   0.0000      15.319617       416.8680 
 482   0.0000      15.334141       417.2632 
 483   0.0000      15.470315       420.9687 
 484   0.0000      15.573654       423.7807 
 485   0.0000      15.713959       427.5986 
 486   0.0000      15.848896       431.2704 
 487   0.0000      15.917825       433.1460 
 488   0.0000      15.918604       433.1672 
 489   0.0000      15.937107       433.6707 
 490   0.0000      15.953230       434.1095 
 491   0.0000      16.369655       445.4410 
 492   0.0000      16.400178       446.2715 
 493   0.0000      16.455572       447.7789 
 494   0.0000      16.499743       448.9808 
 495   0.0000      16.545677       450.2308 
 496   0.0000      16.594557       451.5609 
 497   0.0000      16.606764       451.8930 
 498   0.0000      16.632928       452.6050 
 499   0.0000      16.668125       453.5628 
 500   0.0000      16.793896       456.9851 
 501   0.0000      16.868474       459.0145 
 502   0.0000      50.216834      1366.4695 
 503   0.0000      50.253695      1367.4726 
 504   0.0000      50.308105      1368.9531 
 505   0.0000      50.318962      1369.2486 
 506   0.0000      50.325014      1369.4133 
 507   0.0000      50.355397      1370.2400 
 508   0.0000      50.374946      1370.7720 
 509   0.0000      50.393115      1371.2664 
 510   0.0000      50.509926      1374.4450 
 511   0.0000      50.528179      1374.9416 
 512   0.0000      50.941023      1386.1757 
 513   0.0000      50.947425      1386.3499 
 514   0.0000      51.022020      1388.3797 
 515   0.0000      51.034431      1388.7175 
 516   0.0000      51.048169      1389.0913 
 517   0.0000      51.072922      1389.7649 
 518   0.0000      51.135277      1391.4616 
 519   0.0000      51.148627      1391.8249 
 520   0.0000      51.159268      1392.1144 
 521   0.0000      51.220630      1393.7842 
 522   0.0000      51.227555      1393.9726 
 523   0.0000      51.235419      1394.1866 
 524   0.0000      51.247940      1394.5274 
 525   0.0000      51.263015      1394.9376 
 526   0.0000      51.286330      1395.5720 
 527   0.0000      51.306374      1396.1174 
 528   0.0000      51.351150      1397.3358 
 529   0.0000      51.383456      1398.2149 
 530   0.0000      51.534932      1402.3368 
 531   0.0000      51.575246      1403.4338 
 532   0.0000      61.889323      1684.0941 
 533   0.0000      62.053914      1688.5728 
 534   0.0000      62.382524      1697.5148 
 535   0.0000      62.449498      1699.3372 
 536   0.0000      62.530487      1701.5411 
 537   0.0000      62.844834      1710.0949 
 538   0.0000      62.861684      1710.5534 
 539   0.0000      63.081431      1716.5330 
 540   0.0000      63.563080      1729.6394 
 541   0.0000      63.964406      1740.5600 
Total SCF time: 0 days 0 hours 0 min 27 sec 

Maximum memory used throughout the entire SCF-calculation: 114.3 MB


           ************************************************************
           *        Program running with 19 parallel MPI-processes    *
           *              working on a common directory               *
           ************************************************************

------------------------------------------------------------------------------
                                ORCA  MP2 
------------------------------------------------------------------------------

Freezing NCore=0 chemical core electrons
Initializing SHARK ... done


------------------------------------------------------------------------------
                           ORCA ORBITAL LOCALIZATION
------------------------------------------------------------------------------

Input orbitals are from                  ... naphthalene_lw1x_Compound_4.gbw
Output orbitals are to                   ... naphthalene_lw1x_Compound_4.loc
Max. number of iterations                ... 128
Localizations seeded randomly            ... off
Convergence tolerance                    ... 1.000e-06
Treshold for strong local MOs            ... 9.500e-01
Treshold for bond MOs                    ... 8.500e-01
Operator                                 ... 0
Orbital range for localization           ... 0 to 33
Localization criterion                   ... FOSTER-BOYS (AUGMENTED HESSIAN)
Doing the dipole integrals     ... o.k.
Initial value of the localization sum :   430.131953
ITERATION   0 : L=  530.1554012259 DL=  1.00e+02 (AVERGE_DL)=    0.4222498266 
ITERATION   1 : L=  564.6108825728 DL=  3.45e+01 (AVERGE_DL)=    0.2478264924 
ITERATION   2 : L=  566.8265567861 DL=  2.22e+00 (AVERGE_DL)=    0.0628451144 
ITERATION   3 : L=  566.9210864446 DL=  9.45e-02 (AVERGE_DL)=    0.0129808345 
ITERATION   4 : L=  566.9281311981 DL=  7.04e-03 (AVERGE_DL)=    0.0035436553 
ITERATION   5 : L=  566.9286207385 DL=  4.90e-04 (AVERGE_DL)=    0.0009341419 
ITERATION   6 : L=  566.9286554578 DL=  3.47e-05 (AVERGE_DL)=    0.0002487734 
ITERATION   7 : L=  566.9286580467 DL=  2.59e-06 (AVERGE_DL)=    0.0000679315 
ITERATION   8 : L=  566.9286582494 DL=  2.03e-07 (AVERGE_DL)=    0.0000190078 
LOCALIZATION SUM CONVERGED

------------------------------------------------------
AUGMENTED HESSIAN OPTIMIZATION OF FOSTER-BOYS ORBITALS
------------------------------------------------------

Spin operator:           0
Orbital window:          0 to 33
Number of iterations:    128
Gradient tolerance:      1.000e-06
Number of pairs:         561
Davidson threshold:      2000
Diagonalization method:  LAPACK
Iter:    0   L: 566.9286582494   Grad. norm: 2.761329e-03
   *** Likely close to a maximum now. ***
       Augmented Hessian eigenvalues:  6.96e-08 -3.79e+00 -4.05e+00 -4.11e+00 ... 
Iter:    1   L: 566.9286582842   Grad. norm: 1.660704e-08
LOCALIZATION HAS CONVERGED.

Eigenvalues of the Hessian:
  0 -3.788e+00
  1 -4.049e+00
  2 -4.114e+00
  3 -4.245e+00
  4 -4.246e+00
  5 -6.577e+00
  6 -6.577e+00
  7 -6.577e+00
  8 -6.577e+00
  9 -6.587e+00
    ...


------------------------------------------------------------------------------- 
                    LOCALIZED MOLECULAR ORBITAL COMPOSITIONS                   
------------------------------------------------------------------------------- 

The Mulliken populations for each LMO on each atom are computed
The LMO`s will be ordered according to atom index and type
  (A) Strongly localized MO`s have populations of >=0.950 on one atom
  (B) Two center bond orbitals have populations of >=0.850 on two atoms
  (C) Other MO`s are considered to be `delocalized`

FOUND  -  10 strongly local MO`s
       -  24 two center bond MO`s
       -   0 significantly delocalized MO`s

Rather strongly localized orbitals:
MO   9:  14C  -   1.003463
MO   8:  13C  -   1.003462
MO   7:  10C  -   1.003778
MO   6:   9C  -   1.003777
MO   5:   5C  -   1.003462
MO   4:   4C  -   1.003777
MO   3:   3C  -   1.004131
MO   2:   2C  -   1.004131
MO   1:   1C  -   1.003778
MO   0:   0C  -   1.003462
Bond-like localized orbitals:
MO  33:  17H  -   0.451491  and  14C  -   0.570722
MO  32:  16H  -   0.451492  and  13C  -   0.570766
MO  31:  15H  -   0.455162  and  10C  -   0.568865
MO  30:  14C  -   0.516469  and  13C  -   0.516461
MO  29:  14C  -   0.473571  and   9C  -   0.489186
MO  28:  14C  -   0.473586  and   9C  -   0.489173
MO  27:  13C  -   0.473590  and  10C  -   0.489157
MO  26:  13C  -   0.473582  and  10C  -   0.489169
MO  25:  12H  -   0.451470  and   5C  -   0.570724
MO  24:  11H  -   0.455185  and   4C  -   0.568842
MO  23:  10C  -   0.501669  and   3C  -   0.532988
MO  22:   9C  -   0.568848  and   6H  -   0.455146
MO  21:   9C  -   0.501674  and   2C  -   0.532996
MO  20:   8H  -   0.455168  and   1C  -   0.568829
MO  19:   7H  -   0.451484  and   0C  -   0.570739
MO  18:   5C  -   0.473589  and   4C  -   0.489161
MO  17:   5C  -   0.473611  and   4C  -   0.489126
MO  16:   5C  -   0.516484  and   0C  -   0.516452
MO  15:   4C  -   0.501684  and   3C  -   0.532994
MO  14:   3C  -   0.443538  and   2C  -   0.443569
MO  13:   3C  -   0.443567  and   2C  -   0.443536
MO  12:   2C  -   0.532978  and   1C  -   0.501669
MO  11:   1C  -   0.489182  and   0C  -   0.473584
MO  10:   1C  -   0.489173  and   0C  -   0.473587
Localized MO's were stored in: naphthalene_lw1x_Compound_4.loc



Calculating differential overlap integrals ... ok
Threshold for domain construction in prescreening: TCutDOPre = 3.0e-02

--------------------------
ELECTRON PAIR PRESCREENING
--------------------------

Dipole-based pair screening          .... used

   TCutDOij = 1.000000e-05
   TCutPre  = 1.000000e-06
   .... Finished loop over pairs
Total time spent in the prescreening                  ...     0.026 sec
sum of pair energies estimated for screened out pairs ...       0.000000000000 Eh

---------------------------
MAP CONSTRUCTION THRESHOLDS
---------------------------
    TCutMKN     ...     1.0e-03
    TCutDO      ...     5.0e-03
    TCutC(MO)   ...     1.0e-03
    TCutC(PAO)  ...     1.0e-03

--------------------------------
LOCAL RI TRANSFORMATION (IAVPAO)
--------------------------------

Orbital window:       0 to 33
Number of PAOs:     542
Basis functions:    542 (198 shells)
Aux. functions:    2666 (710 shells)
Use SHARK:           on

Processing maps (0.0 sec)
Average map sizes:
   Aux shells -> MOs              34.0
   Aux shells -> PAOs            542.0
   MOs        -> AO shells       181.1
   PAOs       -> AO shells       197.8

Calculating integrals (2.0 sec, 374.855 MB)
Sorting integrals (2.4 sec, 374.825 MB)
Total time for the integral transformation: 4.7 sec

----------------------------
Local MP2 Energy Calculation
----------------------------
Number of orbital pairs included:    595
Truncation parameters:
    PAOOverlapThresh    =        1.000e-08
    TCutPNO             =        1.000e-09

Spin component scaling                      .... not used
MP2 energy scaling factor                   .... 1.000

Formation of semicanonical amplitudes.
 10% done.
 20% done.
 30% done.
 40% done.
 50% done.
 60% done.
 70% done.
 80% done.
 90% done.
100% done.

Finished the LMP2 guess in 21.3 sec.

Average number of PAOs per pair        536.4
Average number of nrPAOs per pair      506.8
Average number of PNOs per pair         89.6
Average number of AUX  per pair        1714.7

Semicanonical MP2 energy:                   -1.966244996339 Eh
Semicanonical MP2 energy in PNO basis:      -1.966113845546 Eh

Initial amplitudes guess done. Entering DLPNO-MP2 iteration loop:
   Max. no of iterations          ...  100
   Energy convergence tolerance   ...    1.0e-06 Eh
   Residual convergence tolerance ...    5.0e-06
   Fock matrix cutoff             ...    1.0e-05 Eh
   Max # vectors in DIIS          ...  7
   Start iteration of DIIS        ...  0
   Levelshift                     ...  2.000e-01 Eh
   Damping before turning on DIIS ...  5.000e-01
   Damping after turning on DIIS  ...  0.000e+00

                           *** Turning on DIIS ***
Iter=   0:  ECORR= -2.013088264241  DE=   4.7e-02 RMAX=   1.4e-02
Iter=   1:  ECORR= -2.042086023707  DE=   2.9e-02 RMAX=   4.8e-03
Iter=   2:  ECORR= -2.049794059077  DE=   7.7e-03 RMAX=   2.1e-03
Iter=   3:  ECORR= -2.051861586393  DE=   2.1e-03 RMAX=   9.2e-04
Iter=   4:  ECORR= -2.052018032117  DE=   1.6e-04 RMAX=   2.7e-04
Iter=   5:  ECORR= -2.052002617489  DE=   1.5e-05 RMAX=   7.3e-05
Iter=   6:  ECORR= -2.051999296772  DE=   3.3e-06 RMAX=   1.9e-05
Iter=   7:  ECORR= -2.052001939257  DE=   2.6e-06 RMAX=   5.1e-06
Iter=   8:  ECORR= -2.052002476818  DE=   5.4e-07 RMAX=   1.5e-06 => CONVERGED

Finished the DLPNO-MP2 iterations in 119.8 sec.

LMP2 correlation energy (all non-screened pairs)      ...     -2.052002476818 Eh
Semicanonical PNO correction to energy                ...     -0.000131150793 Eh
Sum of pair energies estimated for screened out pairs ...      0.000000000000 Eh
                                                         -----------------------
Total:                                                ...     -2.052133627610 Eh

------------------------------------------------------
 DLPNO-MP2 CORRELATION ENERGY:      -2.052133627610 Eh
------------------------------------------------------

TIMINGS FOR DLPNO-MP2:
Localization                             ...        0.549 sec
Differential overlap integrals           ...        3.181 sec
Prescreening                             ...        0.392 sec
Map setup                                ...        0.015 sec
(ia|v) trafo                             ...        4.667 sec
Semicanonical amplitudes                 ...       16.868 sec
PNO construction                         ...        2.152 sec
DLPNO-MP2 iterations                     ...      119.764 sec
                                             ----------------
Total time                                        151.321 sec


---------------------------------------
MP2 TOTAL ENERGY:     -385.671672324 Eh
---------------------------------------

Maximum memory used throughout the entire MP2-calculation: 477.9 MB

-------------------------   --------------------
FINAL SINGLE POINT ENERGY      -385.671672323937
-------------------------   --------------------


                            ***************************************
                            *     ORCA property calculations      *
                            ***************************************


  WARNING: The energy has been calculated at the MP2 level but the densities
           used in the property calculations are still SCF densities
           MP2 response densities have not been calculated 
           use %mp2 Density relaxed end
           or  %mp2 Density unrelaxed end

                                    ---------------------
                                    Active property flags
                                    ---------------------
   (+) Dipole Moment


------------------------------------------------------------------------------
                       ORCA ELECTRIC PROPERTIES CALCULATION
------------------------------------------------------------------------------

Dipole Moment Calculation                       ... on
Quadrupole Moment Calculation                   ... off
Polarizability Calculation                      ... off
GBWName                                         ... naphthalene_lw1x_Compound_4.gbw
Electron density                                ... naphthalene_lw1x_Compound_4.scfp
The origin for moment calculation is the CENTER OF MASS  = ( 0.000000,  0.000000  0.000000)

-------------
DIPOLE MOMENT
-------------
                                X             Y             Z
Electronic contribution:      0.00000       0.00000       0.00000
Nuclear contribution   :      0.00000       0.00000       0.00000
                        -----------------------------------------
Total Dipole Moment    :      0.00000       0.00000       0.00000
                        -----------------------------------------
Magnitude (a.u.)       :      0.00000
Magnitude (Debye)      :      0.00000



--------------------
Rotational spectrum 
--------------------
 
Rotational constants in cm-1:     0.104716     0.041339     0.029639 
Rotational constants in MHz :  3139.313308  1239.322676   888.546612 

 Dipole components along the rotational axes: 
x,y,z [a.u.] :     0.000001     0.000001     0.000000 
x,y,z [Debye]:     0.000003     0.000004     0.000001 

 

Timings for individual modules:

Sum of individual times         ...      190.205 sec (=   3.170 min)
GTO integral calculation        ...        3.972 sec (=   0.066 min)   2.1 %
Relativistic integrals          ...        4.998 sec (=   0.083 min)   2.6 %
SCF iterations                  ...       28.443 sec (=   0.474 min)  15.0 %
MP2 module                      ...      152.792 sec (=   2.547 min)  80.3 %
================================================================================

----- Orbital basis set information -----
Your calculation utilizes the basis: def2-SVP
   F. Weigend and R. Ahlrichs, Phys. Chem. Chem. Phys. 7, 3297 (2005).



----------------------------------------------------------------------------------------------
                                        COMPOUND BLOCK                                        
                                     SUMMARY OF VARIABLES                                     
----------------------------------------------------------------------------------------------

Variable Name                                           Value             Evaluation String
-------------                                           -----             -----------------
HF_DZ                                    |            -383.48699831    |  
EC_DZ                                    |              -1.71526717    |  
CC_DZ                                    |              -1.65130199    |  EC_DZ-T_DZ
T_DZ                                     |              -0.06396517    |  
HF_TZ                                    |            -383.49853600    |  
EC_TZ                                    |              -1.78401507    |  
CC_TZ                                    |              -1.69491197    |  EC_TZ-T_TZ
T_TZ                                     |              -0.08910309    |  
HF_CBS                                   |            -383.50028579    |  HF_TZ-(HF_TZ-HF_DZ)*3^-5/(3^-5-2^-5)
CC_CBS                                   |              -1.70238539    |  CC_TZ-(CC_TZ-CC_DZ)*3^-4.7405/(3^-4.7405-2^-4.7405)
T_CBS                                    |              -0.10798055    |  T_TZ-(T_TZ-T_DZ)*3^-2.0879/(3^-2.0879-2^-2.0879)
MP_FC                                    |            -385.06965611    |  
MP_FU                                    |            -385.67167232    |  
MP_CV                                    |              -0.60201622    |  MP_FU-MP_FC
LW1X                                     |            -385.91266794    |  HF_CBS+CC_CBS+T_CBS+MP_CV
                             ****ORCA TERMINATED NORMALLY****
TOTAL RUN TIME: 0 days 3 hours 15 minutes 38 seconds 236 msec
